lammps cell input
2123 atoms
6306 bonds
4184 angles
6246 dihedrals

3 atom types
6306 bond types
4184 angle types
6246 dihedral types
0 50 xlo xhi
0 50 ylo yhi
0 120 zlo zhi

Masses

1 59.6282
2 59.6282
3 59.6282

Bond Coeffs

1 3.17417e-05 0.991646 0.4545 3.26069e-05
 2 3.17417e-05 0.762888 0.4545 1.92983e-05
 3 3.17417e-05 1.01241 0.4545 3.39866e-05
 4 3.17417e-05 0.762888 0.4545 1.92983e-05
 5 3.17417e-05 0.991646 0.4545 3.26069e-05
 6 3.17417e-05 0.991646 0.4545 3.26069e-05
 7 3.17417e-05 0.762888 0.4545 1.92983e-05
 8 3.17417e-05 1.01241 0.4545 3.39866e-05
 9 3.17417e-05 0.762888 0.4545 1.92983e-05
 10 3.17417e-05 0.991646 0.4545 3.26069e-05
 11 3.17417e-05 0.991646 0.4545 3.26069e-05
 12 3.17417e-05 0.762888 0.4545 1.92983e-05
 13 3.17417e-05 1.01241 0.4545 3.39866e-05
 14 3.17417e-05 0.762888 0.4545 1.92983e-05
 15 3.17417e-05 0.991646 0.4545 3.26069e-05
 16 3.17417e-05 0.991646 0.4545 3.26069e-05
 17 3.17417e-05 0.762888 0.4545 1.92983e-05
 18 3.17417e-05 1.01241 0.4545 3.39866e-05
 19 3.17417e-05 0.762888 0.4545 1.92983e-05
 20 3.17417e-05 0.991646 0.4545 3.26069e-05
 21 3.17417e-05 0.993696 0.4545 3.27419e-05
 22 3.17417e-05 0.633174 0.4545 1.32936e-05
 23 3.17417e-05 0.633174 0.4545 1.32936e-05
 24 3.17417e-05 0.875929 0.4545 2.5441e-05
 25 3.17417e-05 0.875929 0.4545 2.5441e-05
 26 3.17417e-05 0.993696 0.4545 3.27419e-05
 27 3.17417e-05 0.633174 0.4545 1.32936e-05
 28 3.17417e-05 0.633174 0.4545 1.32936e-05
 29 3.17417e-05 0.875929 0.4545 2.5441e-05
 30 3.17417e-05 0.875929 0.4545 2.5441e-05
 31 3.17417e-05 0.875929 0.4545 2.5441e-05
 32 3.17417e-05 0.875929 0.4545 2.5441e-05
 33 3.17417e-05 0.633174 0.4545 1.32936e-05
 34 3.17417e-05 0.633174 0.4545 1.32936e-05
 35 3.17417e-05 0.993696 0.4545 3.27419e-05
 36 3.17417e-05 0.875929 0.4545 2.5441e-05
 37 3.17417e-05 0.875929 0.4545 2.5441e-05
 38 3.17417e-05 0.633174 0.4545 1.32936e-05
 39 3.17417e-05 0.633174 0.4545 1.32936e-05
 40 3.17417e-05 0.993696 0.4545 3.27419e-05
 41 3.17417e-05 0.851381 0.4545 2.4035e-05
 42 3.17417e-05 0.851381 0.4545 2.4035e-05
 43 3.17417e-05 0.934251 0.4545 2.89417e-05
 44 3.17417e-05 0.934251 0.4545 2.89417e-05
 45 3.17417e-05 0.578347 0.4545 1.10911e-05
 46 3.17417e-05 0.578347 0.4545 1.10911e-05
 47 3.17417e-05 0.934251 0.4545 2.89417e-05
 48 3.17417e-05 0.934251 0.4545 2.89417e-05
 49 3.17417e-05 0.851381 0.4545 2.4035e-05
 50 3.17417e-05 0.851381 0.4545 2.4035e-05
 51 3.17417e-05 0.578347 0.4545 1.10911e-05
 52 3.17417e-05 0.934251 0.4545 2.89417e-05
 53 3.17417e-05 0.934251 0.4545 2.89417e-05
 54 3.17417e-05 0.851381 0.4545 2.4035e-05
 55 3.17417e-05 0.851381 0.4545 2.4035e-05
 56 3.17417e-05 0.851381 0.4545 2.4035e-05
 57 3.17417e-05 0.851381 0.4545 2.4035e-05
 58 3.17417e-05 0.934251 0.4545 2.89417e-05
 59 3.17417e-05 0.934251 0.4545 2.89417e-05
 60 3.17417e-05 0.578347 0.4545 1.10911e-05
 61 3.17417e-05 1.02104 0.4545 3.45684e-05
 62 3.17417e-05 1.02104 0.4545 3.45684e-05
 63 3.17417e-05 1.02104 0.4545 3.45684e-05
 64 3.17417e-05 1.02104 0.4545 3.45684e-05
 65 3.17417e-05 0.618038 0.4545 1.26656e-05
 66 3.17417e-05 0.707528 0.4545 1.65991e-05
 67 3.17417e-05 1.08389 0.4545 3.89551e-05
 68 3.17417e-05 0.707528 0.4545 1.65991e-05
 69 3.17417e-05 1.08389 0.4545 3.89551e-05
 70 3.17417e-05 0.618038 0.4545 1.26656e-05
 71 3.17417e-05 0.707528 0.4545 1.65991e-05
 72 3.17417e-05 1.08389 0.4545 3.89551e-05
 73 3.17417e-05 0.707528 0.4545 1.65991e-05
 74 3.17417e-05 1.08389 0.4545 3.89551e-05
 75 3.17417e-05 1.1237 0.4545 4.18693e-05
 76 3.17417e-05 0.975875 0.4545 3.1578e-05
 77 3.17417e-05 1.13236 0.4545 4.25171e-05
 78 3.17417e-05 1.1237 0.4545 4.18693e-05
 79 3.17417e-05 0.975875 0.4545 3.1578e-05
 80 3.17417e-05 1.13236 0.4545 4.25171e-05
 81 3.17417e-05 0.975875 0.4545 3.1578e-05
 82 3.17417e-05 1.13236 0.4545 4.25171e-05
 83 3.17417e-05 0.975875 0.4545 3.1578e-05
 84 3.17417e-05 1.13236 0.4545 4.25171e-05
 85 3.17417e-05 0.822298 0.4545 2.2421e-05
 86 3.17417e-05 1.1237 0.4545 4.18693e-05
 87 3.17417e-05 0.822298 0.4545 2.2421e-05
 88 3.17417e-05 1.1237 0.4545 4.18693e-05
 89 3.17417e-05 0.822298 0.4545 2.2421e-05
 90 3.17417e-05 1.1237 0.4545 4.18693e-05
 91 3.17417e-05 0.822298 0.4545 2.2421e-05
 92 3.17417e-05 1.1237 0.4545 4.18693e-05
 93 3.17417e-05 0.822298 0.4545 2.2421e-05
 94 3.17417e-05 0.822298 0.4545 2.2421e-05
 95 3.17417e-05 1.13236 0.4545 4.25171e-05
 96 3.17417e-05 1.13236 0.4545 4.25171e-05
 97 3.17417e-05 1.13236 0.4545 4.25171e-05
 98 3.17417e-05 1.13236 0.4545 4.25171e-05
 99 3.17417e-05 0.822298 0.4545 2.2421e-05
 100 3.17417e-05 0.822298 0.4545 2.2421e-05
 101 3.17417e-05 0.975875 0.4545 3.1578e-05
 102 3.17417e-05 1.08389 0.4545 3.89551e-05
 103 3.17417e-05 0.975875 0.4545 3.1578e-05
 104 3.17417e-05 1.08389 0.4545 3.89551e-05
 105 3.17417e-05 0.975875 0.4545 3.1578e-05
 106 3.17417e-05 1.08389 0.4545 3.89551e-05
 107 3.17417e-05 0.975875 0.4545 3.1578e-05
 108 3.17417e-05 1.08389 0.4545 3.89551e-05
 109 3.17417e-05 1.1237 0.4545 4.18693e-05
 110 3.17417e-05 0.707528 0.4545 1.65991e-05
 111 3.17417e-05 1.1237 0.4545 4.18693e-05
 112 3.17417e-05 0.707528 0.4545 1.65991e-05
 113 3.17417e-05 0.707528 0.4545 1.65991e-05
 114 3.17417e-05 0.707528 0.4545 1.65991e-05
 115 3.17417e-05 0.618038 0.4545 1.26656e-05
 116 3.17417e-05 1.02104 0.4545 3.45684e-05
 117 3.17417e-05 1.02104 0.4545 3.45684e-05
 118 3.17417e-05 0.618038 0.4545 1.26656e-05
 119 3.17417e-05 1.02104 0.4545 3.45684e-05
 120 3.17417e-05 1.02104 0.4545 3.45684e-05
 121 7.93543e-05 0.729075 0.5 5.2726e-05
 122 7.93543e-05 1.84112 0.5 0.000336236
 123 7.93543e-05 2.08634 0.5 0.000431769
 124 7.93543e-05 2.79143 0.5 0.000772917
 125 7.93543e-05 2.61013 0.5 0.00067578
 126 7.93543e-05 2.0946 0.5 0.000435195
 127 7.93543e-05 2.07856 0.5 0.000428553
 128 7.93543e-05 2.79255 0.5 0.000773542
 129 7.93543e-05 3.31684 0.5 0.00109127
 130 7.93543e-05 0.492874 0.5 2.40964e-05
 131 7.93543e-05 3.10363 0.5 0.000955477
 132 7.93543e-05 2.0746 0.5 0.000426922
 133 7.93543e-05 2.1363 0.5 0.000452695
 134 7.93543e-05 2.96139 0.5 0.000869907
 135 7.93543e-05 1.97138 0.5 0.000385495
 136 7.93543e-05 2.08541 0.5 0.000431385
 137 7.93543e-05 2.4682 0.5 0.000604284
 138 7.93543e-05 3.19737 0.5 0.00101407
 139 7.93543e-05 2.43592 0.5 0.000588583
 140 7.93543e-05 0.844824 0.5 7.07967e-05
 141 7.93543e-05 2.08566 0.5 0.000431488
 142 7.93543e-05 2.32852 0.5 0.000537822
 143 7.93543e-05 2.99481 0.5 0.000889648
 144 7.93543e-05 2.07458 0.5 0.000426916
 145 7.93543e-05 3.60568 0.5 0.0012896
 146 7.93543e-05 2.68126 0.5 0.000713115
 147 7.93543e-05 0.115591 0.5 1.32534e-06
 148 7.93543e-05 2.0768 0.5 0.00042783
 149 7.93543e-05 0.209635 0.5 4.35923e-06
 150 7.93543e-05 0.898176 0.5 8.0021e-05
 151 7.93543e-05 2.49105 0.5 0.000615525
 152 7.93543e-05 2.07583 0.5 0.000427431
 153 7.93543e-05 3.24036 0.5 0.00104152
 154 7.93543e-05 3.36213 0.5 0.00112127
 155 7.93543e-05 3.07275 0.5 0.000936561
 156 7.93543e-05 2.0795 0.5 0.000428941
 157 7.93543e-05 2.09072 0.5 0.000433582
 158 7.93543e-05 2.1404 0.5 0.000454433
 159 7.93543e-05 3.71949 0.5 0.0013723
 160 7.93543e-05 2.07531 0.5 0.000427217
 161 7.93543e-05 2.56303 0.5 0.000651609
 162 7.93543e-05 2.68135 0.5 0.000713159
 163 7.93543e-05 2.08411 0.5 0.000430848
 164 7.93543e-05 2.9564 0.5 0.000866978
 165 7.93543e-05 0.659699 0.5 4.31691e-05
 166 7.93543e-05 2.18961 0.5 0.000475571
 167 7.93543e-05 2.19681 0.5 0.000478704
 168 7.93543e-05 2.38342 0.5 0.000563482
 169 7.93543e-05 2.08135 0.5 0.000429705
 170 7.93543e-05 2.16465 0.5 0.00046479
 171 7.93543e-05 2.49674 0.5 0.000618339
 172 7.93543e-05 3.24036 0.5 0.00104152
 173 7.93543e-05 2.07805 0.5 0.000428342
 174 7.93543e-05 2.59201 0.5 0.000666428
 175 7.93543e-05 2.18034 0.5 0.000471552
 176 7.93543e-05 2.94915 0.5 0.000862731
 177 7.93543e-05 2.07614 0.5 0.000427558
 178 7.93543e-05 2.48941 0.5 0.000614714
 179 7.93543e-05 3.26611 0.5 0.00105814
 180 7.93543e-05 2.07832 0.5 0.000428456
 181 7.93543e-05 3.24056 0.5 0.00104165
 182 7.93543e-05 2.08238 0.5 0.000430131
 183 7.93543e-05 2.22534 0.5 0.000491217
 184 7.93543e-05 2.58975 0.5 0.000665269
 185 7.93543e-05 2.0751 0.5 0.000427128
 186 7.93543e-05 2.97325 0.5 0.000876886
 187 7.93543e-05 3.33934 0.5 0.00110612
 188 7.93543e-05 2.07607 0.5 0.000427527
 189 7.93543e-05 1.0956 0.5 0.000119065
 190 7.93543e-05 2.72507 0.5 0.000736608
 191 7.93543e-05 2.0797 0.5 0.000429024
 192 7.93543e-05 2.09534 0.5 0.000435502
 193 7.93543e-05 0.901592 0.5 8.06308e-05
 194 7.93543e-05 0.885806 0.5 7.7832e-05
 195 7.93543e-05 2.07755 0.5 0.00042814
 196 7.93543e-05 1.49453 0.5 0.000221561
 197 7.93543e-05 2.0761 0.5 0.000427539
 198 7.93543e-05 3.33 0.5 0.00109994
 199 7.93543e-05 2.07531 0.5 0.000427215
 200 7.93543e-05 2.28933 0.5 0.000519875
 201 7.93543e-05 2.07682 0.5 0.000427836
 202 7.93543e-05 2.57445 0.5 0.000657428
 203 7.93543e-05 2.23899 0.5 0.000497262
 204 7.93543e-05 2.69859 0.5 0.000722361
 205 7.93543e-05 0.741686 0.5 5.45659e-05
 206 7.93543e-05 2.08069 0.5 0.000429433
 207 7.93543e-05 1.80304 0.5 0.00032247
 208 7.93543e-05 2.62702 0.5 0.000684556
 209 7.93543e-05 3.29512 0.5 0.00107702
 210 7.93543e-05 2.09074 0.5 0.000433592
 211 7.93543e-05 2.51469 0.5 0.000627262
 212 7.93543e-05 1.18347 0.5 0.00013893
 213 7.93543e-05 2.17577 0.5 0.000469578
 214 7.93543e-05 2.10386 0.5 0.000439049
 215 7.93543e-05 2.10054 0.5 0.000437667
 216 7.93543e-05 2.62352 0.5 0.00068273
 217 7.93543e-05 2.07605 0.5 0.000427521
 218 7.93543e-05 2.84409 0.5 0.000802354
 219 7.93543e-05 3.34756 0.5 0.00111157
 220 7.93543e-05 2.52184 0.5 0.000630833
 221 7.93543e-05 2.12355 0.5 0.000447307
 222 7.93543e-05 3.14304 0.5 0.000979897
 223 7.93543e-05 1.24079 0.5 0.000152713
 224 7.93543e-05 3.4146 0.5 0.00115654
 225 7.93543e-05 2.07775 0.5 0.000428221
 226 7.93543e-05 3.71236 0.5 0.00136704
 227 7.93543e-05 2.28587 0.5 0.000518302
 228 7.93543e-05 0.128016 0.5 1.62559e-06
 229 7.93543e-05 1.19059 0.5 0.000140607
 230 7.93543e-05 2.07719 0.5 0.000427989
 231 7.93543e-05 2.81902 0.5 0.000788273
 232 7.93543e-05 3.35785 0.5 0.00111842
 233 7.93543e-05 2.08962 0.5 0.000433127
 234 7.93543e-05 1.38368 0.5 0.000189912
 235 7.93543e-05 2.09773 0.5 0.000436497
 236 7.93543e-05 2.50911 0.5 0.000624484
 237 7.93543e-05 0.499801 0.5 2.47784e-05
 238 7.93543e-05 2.08432 0.5 0.000430932
 239 7.93543e-05 2.07443 0.5 0.000426852
 240 7.93543e-05 2.13381 0.5 0.00045164
 241 7.93543e-05 3.12381 0.5 0.000967946
 242 7.93543e-05 0.530904 0.5 2.79584e-05
 243 7.93543e-05 2.07442 0.5 0.00042685
 244 7.93543e-05 2.14089 0.5 0.00045464
 245 7.93543e-05 2.49083 0.5 0.000615415
 246 7.93543e-05 3.24253 0.5 0.00104292
 247 7.93543e-05 2.08838 0.5 0.000432612
 248 7.93543e-05 1.03698 0.5 0.000106664
 249 7.93543e-05 2.08291 0.5 0.00043035
 250 7.93543e-05 1.75882 0.5 0.000306847
 251 7.93543e-05 2.21822 0.5 0.000488079
 252 7.93543e-05 1.87314 0.5 0.000348032
 253 7.93543e-05 2.87567 0.5 0.000820273
 254 7.93543e-05 1.18995 0.5 0.000140455
 255 7.93543e-05 2.08601 0.5 0.00043163
 256 7.93543e-05 2.07639 0.5 0.000427661
 257 7.93543e-05 2.54653 0.5 0.000643248
 258 7.93543e-05 3.15176 0.5 0.000985344
 259 7.93543e-05 3.50999 0.5 0.00122206
 260 7.93543e-05 2.07588 0.5 0.000427448
 261 7.93543e-05 2.05094 0.5 0.000417239
 262 7.93543e-05 2.38485 0.5 0.000564159
 263 7.93543e-05 2.08864 0.5 0.000432722
 264 7.93543e-05 0.240586 0.5 5.74147e-06
 265 7.93543e-05 0.645338 0.5 4.131e-05
 266 7.93543e-05 2.49287 0.5 0.000616425
 267 7.93543e-05 2.07691 0.5 0.000427875
 268 7.93543e-05 3.75263 0.5 0.00139686
 269 7.93543e-05 2.07442 0.5 0.000426847
 270 7.93543e-05 2.59252 0.5 0.000666691
 271 7.93543e-05 2.08359 0.5 0.000430632
 272 7.93543e-05 3.28142 0.5 0.00106808
 273 7.93543e-05 2.77787 0.5 0.000765429
 274 7.93543e-05 2.93513 0.5 0.000854546
 275 7.93543e-05 3.57496 0.5 0.00126772
 276 7.93543e-05 2.07442 0.5 0.000426848
 277 7.93543e-05 2.49092 0.5 0.000615458
 278 7.93543e-05 3.24127 0.5 0.00104211
 279 7.93543e-05 2.07578 0.5 0.000427409
 280 7.93543e-05 3.27269 0.5 0.00106241
 281 7.93543e-05 2.32512 0.5 0.000536253
 282 7.93543e-05 2.0749 0.5 0.000427048
 283 7.93543e-05 2.63742 0.5 0.000689987
 284 7.93543e-05 3.24049 0.5 0.0010416
 285 7.93543e-05 2.07507 0.5 0.000427116
 286 7.93543e-05 2.94557 0.5 0.000860636
 287 7.93543e-05 2.08468 0.5 0.000431083
 288 7.93543e-05 0.687813 0.5 4.69268e-05
 289 7.93543e-05 2.07445 0.5 0.000426862
 290 7.93543e-05 1.89836 0.5 0.000357469
 291 7.93543e-05 2.65485 0.5 0.000699135
 292 7.93543e-05 2.07553 0.5 0.000427307
 293 7.93543e-05 2.72487 0.5 0.000736497
 294 7.93543e-05 3.37798 0.5 0.00113187
 295 7.93543e-05 2.58938 0.5 0.000665077
 296 7.93543e-05 1.74192 0.5 0.000300978
 297 7.93543e-05 2.08329 0.5 0.000430506
 298 7.93543e-05 3.27291 0.5 0.00106255
 299 7.93543e-05 2.58134 0.5 0.000660956
 300 7.93543e-05 1.74435 0.5 0.000301819
 301 7.93543e-05 1.757 0.5 0.000306214
 302 7.93543e-05 2.10899 0.5 0.000441193
 303 7.93543e-05 3.1494 0.5 0.000983868
 304 7.93543e-05 0.907661 0.5 8.17199e-05
 305 7.93543e-05 2.0794 0.5 0.0004289
 306 7.93543e-05 2.15002 0.5 0.000458528
 307 7.93543e-05 3.69503 0.5 0.0013543
 308 7.93543e-05 2.49227 0.5 0.000616129
 309 7.93543e-05 2.08971 0.5 0.000433163
 310 7.93543e-05 0.268406 0.5 7.14602e-06
 311 7.93543e-05 2.10954 0.5 0.000441424
 312 7.93543e-05 2.08009 0.5 0.000429184
 313 7.93543e-05 2.63338 0.5 0.000687873
 314 7.93543e-05 2.09709 0.5 0.00043623
 315 7.93543e-05 3.24297 0.5 0.0010432
 316 7.93543e-05 1.71105 0.5 0.000290408
 317 7.93543e-05 2.71677 0.5 0.000732124
 318 7.93543e-05 2.11203 0.5 0.000442465
 319 7.93543e-05 2.73467 0.5 0.000741808
 320 7.93543e-05 2.4984 0.5 0.00061916
 321 7.93543e-05 2.88508 0.5 0.000825653
 322 7.93543e-05 2.0835 0.5 0.000430593
 323 7.93543e-05 3.24102 0.5 0.00104194
 324 7.93543e-05 0.525173 0.5 2.73581e-05
 325 7.93543e-05 3.12692 0.5 0.000969872
 326 7.93543e-05 2.14191 0.5 0.000455077
 327 7.93543e-05 2.07446 0.5 0.000426865
 328 7.93543e-05 1.34272 0.5 0.000178835
 329 7.93543e-05 2.08069 0.5 0.000429434
 330 7.93543e-05 1.27949 0.5 0.000162388
 331 7.93543e-05 3.28695 0.5 0.00107168
 332 7.93543e-05 2.09713 0.5 0.000436246
 333 7.93543e-05 2.23668 0.5 0.000496235
 334 7.93543e-05 2.53806 0.5 0.000638976
 335 7.93543e-05 3.37333 0.5 0.00112875
 336 7.93543e-05 2.09197 0.5 0.000434101
 337 7.93543e-05 2.49399 0.5 0.000616979
 338 7.93543e-05 2.07466 0.5 0.000426946
 339 7.93543e-05 2.4907 0.5 0.000615354
 340 7.93543e-05 2.07967 0.5 0.000429012
 341 7.93543e-05 2.91279 0.5 0.000841589
 342 7.93543e-05 2.55047 0.5 0.000645242
 343 7.93543e-05 2.93915 0.5 0.000856887
 344 7.93543e-05 2.0755 0.5 0.000427293
 345 7.93543e-05 3.26598 0.5 0.00105805
 346 7.93543e-05 2.07445 0.5 0.000426863
 347 7.93543e-05 3.54814 0.5 0.00124877
 348 7.93543e-05 2.10341 0.5 0.000438863
 349 7.93543e-05 3.24097 0.5 0.00104191
 350 7.93543e-05 2.07673 0.5 0.000427798
 351 7.93543e-05 2.89471 0.5 0.000831174
 352 7.93543e-05 2.14603 0.5 0.000456826
 353 7.93543e-05 1.43158 0.5 0.000203287
 354 7.93543e-05 2.07961 0.5 0.000428986
 355 7.93543e-05 2.54598 0.5 0.000642972
 356 7.93543e-05 3.26592 0.5 0.00105802
 357 7.93543e-05 2.07624 0.5 0.000427598
 358 7.93543e-05 3.24261 0.5 0.00104297
 359 7.93543e-05 2.53536 0.5 0.000637617
 360 7.93543e-05 2.08862 0.5 0.000432714
 361 7.93543e-05 0.493483 0.5 2.4156e-05
 362 7.93543e-05 2.97295 0.5 0.000876708
 363 7.93543e-05 2.07772 0.5 0.000428208
 364 7.93543e-05 2.86931 0.5 0.000816647
 365 7.93543e-05 2.07976 0.5 0.000429051
 366 7.93543e-05 2.07826 0.5 0.000428429
 367 7.93543e-05 3.48324 0.5 0.0012035
 368 7.93543e-05 2.11067 0.5 0.000441897
 369 7.93543e-05 3.7456 0.5 0.00139163
 370 7.93543e-05 2.07477 0.5 0.000426992
 371 7.93543e-05 1.72675 0.5 0.000295759
 372 7.93543e-05 2.69114 0.5 0.000718376
 373 7.93543e-05 2.07469 0.5 0.000426961
 374 7.93543e-05 2.62746 0.5 0.000684782
 375 7.93543e-05 2.48953 0.5 0.000614772
 376 7.93543e-05 2.13276 0.5 0.000451197
 377 7.93543e-05 2.08585 0.5 0.000431565
 378 7.93543e-05 3.24468 0.5 0.0010443
 379 7.93543e-05 2.53803 0.5 0.000638962
 380 7.93543e-05 2.85805 0.5 0.00081025
 381 7.93543e-05 2.08483 0.5 0.000431145
 382 7.93543e-05 3.42224 0.5 0.00116172
 383 7.93543e-05 2.57344 0.5 0.000656913
 384 7.93543e-05 1.4359 0.5 0.000204516
 385 7.93543e-05 2.08199 0.5 0.000429971
 386 7.93543e-05 3.26799 0.5 0.00105936
 387 7.93543e-05 2.4048 0.5 0.00057364
 388 7.93543e-05 2.87231 0.5 0.000818358
 389 7.93543e-05 0.543641 0.5 2.9316e-05
 390 7.93543e-05 2.07442 0.5 0.000426847
 391 7.93543e-05 3.50922 0.5 0.00122152
 392 7.93543e-05 1.27824 0.5 0.000162072
 393 7.93543e-05 2.42397 0.5 0.000582819
 394 7.93543e-05 2.11177 0.5 0.000442358
 395 7.93543e-05 2.49558 0.5 0.000617766
 396 7.93543e-05 2.63346 0.5 0.000687916
 397 7.93543e-05 3.24075 0.5 0.00104177
 398 7.93543e-05 2.09164 0.5 0.000433964
 399 7.93543e-05 2.24199 0.5 0.000498595
 400 7.93543e-05 2.07874 0.5 0.000428627
 401 7.93543e-05 0.48689 0.5 2.35148e-05
 402 7.93543e-05 3.14351 0.5 0.000980193
 403 7.93543e-05 3.58944 0.5 0.00127801
 404 7.93543e-05 1.7489 0.5 0.000303398
 405 7.93543e-05 2.76705 0.5 0.000759476
 406 7.93543e-05 2.50289 0.5 0.00062139
 407 7.93543e-05 2.08853 0.5 0.000432675
 408 7.93543e-05 3.2418 0.5 0.00104244
 409 7.93543e-05 2.08696 0.5 0.000432025
 410 7.93543e-05 2.53429 0.5 0.000637081
 411 7.93543e-05 2.07619 0.5 0.000427579
 412 7.93543e-05 3.25534 0.5 0.00105117
 413 7.93543e-05 1.63142 0.5 0.000264004
 414 7.93543e-05 2.07928 0.5 0.000428853
 415 7.93543e-05 3.02538 0.5 0.000907908
 416 7.93543e-05 1.78997 0.5 0.000317813
 417 7.93543e-05 2.498 0.5 0.000618962
 418 7.93543e-05 3.25301 0.5 0.00104967
 419 7.93543e-05 2.07915 0.5 0.000428798
 420 7.93543e-05 3.24302 0.5 0.00104323
 421 7.93543e-05 3.38124 0.5 0.00113405
 422 7.93543e-05 2.30297 0.5 0.000526085
 423 7.93543e-05 2.0977 0.5 0.000436482
 424 7.93543e-05 0.371178 0.5 1.36661e-05
 425 7.93543e-05 3.08423 0.5 0.000943569
 426 7.93543e-05 2.07835 0.5 0.000428468
 427 7.93543e-05 3.14189 0.5 0.00097918
 428 7.93543e-05 2.07456 0.5 0.000426905
 429 7.93543e-05 2.14461 0.5 0.000456225
 430 7.93543e-05 0.482196 0.5 2.30636e-05
 431 7.93543e-05 2.09648 0.5 0.000435975
 432 7.93543e-05 0.649629 0.5 4.18611e-05
 433 7.93543e-05 3.29389 0.5 0.00107621
 434 7.93543e-05 2.09324 0.5 0.000434631
 435 7.93543e-05 2.09581 0.5 0.000435698
 436 7.93543e-05 3.4082 0.5 0.00115221
 437 7.93543e-05 2.07582 0.5 0.000427426
 438 7.93543e-05 2.70026 0.5 0.000723256
 439 7.93543e-05 2.09016 0.5 0.000433351
 440 7.93543e-05 3.75269 0.5 0.0013969
 441 7.93543e-05 2.09096 0.5 0.000433681
 442 7.93543e-05 2.07524 0.5 0.000427187
 443 7.93543e-05 2.08084 0.5 0.000429493
 444 7.93543e-05 2.19668 0.5 0.000478647
 445 7.93543e-05 2.10813 0.5 0.000440836
 446 7.93543e-05 3.39324 0.5 0.00114211
 447 7.93543e-05 2.14471 0.5 0.000456265
 448 7.93543e-05 2.59841 0.5 0.000669725
 449 7.93543e-05 2.4898 0.5 0.000614908
 450 7.93543e-05 2.63632 0.5 0.000689407
 451 7.93543e-05 3.26863 0.5 0.00105977
 452 7.93543e-05 2.08807 0.5 0.000432485
 453 7.93543e-05 3.24188 0.5 0.00104249
 454 7.93543e-05 2.56098 0.5 0.000650567
 455 7.93543e-05 1.12685 0.5 0.000125955
 456 7.93543e-05 2.08013 0.5 0.000429201
 457 7.93543e-05 2.25448 0.5 0.000504165
 458 7.93543e-05 0.562583 0.5 3.13945e-05
 459 7.93543e-05 3.16298 0.5 0.000992367
 460 7.93543e-05 2.14428 0.5 0.000456085
 461 7.93543e-05 2.07448 0.5 0.000426874
 462 7.93543e-05 1.5919 0.5 0.00025137
 463 7.93543e-05 2.73493 0.5 0.000741946
 464 7.93543e-05 2.07481 0.5 0.000427009
 465 7.93543e-05 2.54885 0.5 0.000644421
 466 7.93543e-05 0.124791 0.5 1.54472e-06
 467 7.93543e-05 0.342986 0.5 1.1669e-05
 468 7.93543e-05 2.09835 0.5 0.000436752
 469 7.93543e-05 2.83003 0.5 0.000794442
 470 7.93543e-05 2.07466 0.5 0.000426947
 471 7.93543e-05 3.46729 0.5 0.00119251
 472 7.93543e-05 2.52567 0.5 0.00063275
 473 7.93543e-05 2.81249 0.5 0.000784628
 474 7.93543e-05 2.54947 0.5 0.000644732
 475 7.93543e-05 2.09225 0.5 0.000434216
 476 7.93543e-05 3.37325 0.5 0.0011287
 477 7.93543e-05 2.91489 0.5 0.000842799
 478 7.93543e-05 2.49868 0.5 0.000619303
 479 7.93543e-05 3.3273 0.5 0.00109815
 480 7.93543e-05 2.08007 0.5 0.000429178
 481 7.93543e-05 2.40349 0.5 0.000573013
 482 7.93543e-05 2.07984 0.5 0.000429081
 483 7.93543e-05 2.79799 0.5 0.000776558
 484 7.93543e-05 2.51235 0.5 0.000626095
 485 7.93543e-05 2.09562 0.5 0.000435618
 486 7.93543e-05 3.2441 0.5 0.00104392
 487 7.93543e-05 0.774774 0.5 5.9543e-05
 488 7.93543e-05 3.09667 0.5 0.000951195
 489 7.93543e-05 2.13222 0.5 0.000450966
 490 7.93543e-05 3.60966 0.5 0.00129245
 491 7.93543e-05 3.12593 0.5 0.000969257
 492 7.93543e-05 2.63749 0.5 0.00069002
 493 7.93543e-05 2.08652 0.5 0.000431844
 494 7.93543e-05 3.24095 0.5 0.0010419
 495 7.93543e-05 2.96114 0.5 0.00086976
 496 7.93543e-05 2.6464 0.5 0.000694693
 497 7.93543e-05 1.91861 0.5 0.000365137
 498 7.93543e-05 2.07928 0.5 0.000428851
 499 7.93543e-05 2.13347 0.5 0.000451497
 500 7.93543e-05 3.38535 0.5 0.00113681
 501 7.93543e-05 2.11191 0.5 0.000442416
 502 7.93543e-05 2.52091 0.5 0.000630372
 503 7.93543e-05 2.07746 0.5 0.000428101
 504 7.93543e-05 3.24743 0.5 0.00104607
 505 7.93543e-05 2.50413 0.5 0.000622004
 506 7.93543e-05 1.41832 0.5 0.00019954
 507 7.93543e-05 0.0372232 0.5 1.37438e-07
 508 7.93543e-05 0.133943 0.5 1.7796e-06
 509 7.93543e-05 2.88985 0.5 0.000828383
 510 7.93543e-05 2.09361 0.5 0.000434781
 511 7.93543e-05 0.23068 0.5 5.27836e-06
 512 7.93543e-05 3.21361 0.5 0.00102439
 513 7.93543e-05 2.07885 0.5 0.000428674
 514 7.93543e-05 0.964478 0.5 9.2271e-05
 515 7.93543e-05 2.10741 0.5 0.000440534
 516 7.93543e-05 2.08252 0.5 0.000430188
 517 7.93543e-05 0.13699 0.5 1.86149e-06
 518 7.93543e-05 2.95656 0.5 0.000867069
 519 7.93543e-05 3.06642 0.5 0.000932701
 520 7.93543e-05 2.13788 0.5 0.000453362
 521 7.93543e-05 2.41637 0.5 0.000579171
 522 7.93543e-05 3.18751 0.5 0.00100782
 523 7.93543e-05 2.07551 0.5 0.000427298
 524 7.93543e-05 3.791 0.5 0.00142557
 525 7.93543e-05 2.07823 0.5 0.000428419
 526 7.93543e-05 3.4462 0.5 0.00117805
 527 7.93543e-05 2.62515 0.5 0.00068358
 528 7.93543e-05 2.07619 0.5 0.000427577
 529 7.93543e-05 2.8896 0.5 0.000828239
 530 7.93543e-05 0.35684 0.5 1.26307e-05
 531 7.93543e-05 2.11019 0.5 0.000441695
 532 7.93543e-05 2.19384 0.5 0.000477408
 533 7.93543e-05 0.14224 0.5 2.00689e-06
 534 7.93543e-05 3.24626 0.5 0.00104531
 535 7.93543e-05 0.441417 0.5 1.93277e-05
 536 7.93543e-05 3.21531 0.5 0.00102548
 537 7.93543e-05 0.0791931 0.5 6.22093e-07
 538 7.93543e-05 0.837804 0.5 6.9625e-05
 539 7.93543e-05 2.79251 0.5 0.000773517
 540 7.93543e-05 0.529962 0.5 2.78593e-05
 541 7.93543e-05 2.07443 0.5 0.000426854
 542 7.93543e-05 3.44823 0.5 0.00117943
 543 7.93543e-05 2.56116 0.5 0.000650657
 544 7.93543e-05 0.805101 0.5 6.42955e-05
 545 7.93543e-05 2.08064 0.5 0.000429412
 546 7.93543e-05 3.26723 0.5 0.00105887
 547 7.93543e-05 2.14402 0.5 0.00045597
 548 7.93543e-05 2.57723 0.5 0.000658852
 549 7.93543e-05 0.905488 0.5 8.13291e-05
 550 7.93543e-05 2.09024 0.5 0.000433384
 551 7.93543e-05 2.50585 0.5 0.000622861
 552 7.93543e-05 2.02898 0.5 0.000408353
 553 7.93543e-05 2.08658 0.5 0.00043187
 554 7.93543e-05 2.54284 0.5 0.000641385
 555 7.93543e-05 3.24199 0.5 0.00104257
 556 7.93543e-05 1.40373 0.5 0.000195455
 557 7.93543e-05 1.11492 0.5 0.000123302
 558 7.93543e-05 1.29517 0.5 0.000166392
 559 7.93543e-05 2.36436 0.5 0.000554508
 560 7.93543e-05 2.42234 0.5 0.000582038
 561 7.93543e-05 1.45512 0.5 0.000210029
 562 7.93543e-05 2.78957 0.5 0.00077189
 563 7.93543e-05 2.07559 0.5 0.000427332
 564 7.93543e-05 2.47461 0.5 0.000607429
 565 7.93543e-05 3.49876 0.5 0.00121425
 566 7.93543e-05 2.51067 0.5 0.000625261
 567 7.93543e-05 2.07621 0.5 0.000427586
 568 7.93543e-05 3.24481 0.5 0.00104438
 569 7.93543e-05 2.84447 0.5 0.000802572
 570 7.93543e-05 2.53025 0.5 0.000635049
 571 7.93543e-05 2.0912 0.5 0.000433782
 572 7.93543e-05 3.25389 0.5 0.00105023
 573 7.93543e-05 2.92055 0.5 0.000846076
 574 7.93543e-05 2.07447 0.5 0.000426868
 575 7.93543e-05 2.13981 0.5 0.000454184
 576 7.93543e-05 3.34548 0.5 0.00111019
 577 7.93543e-05 2.08257 0.5 0.000430208
 578 7.93543e-05 2.49315 0.5 0.000616561
 579 7.93543e-05 2.08628 0.5 0.000431745
 580 7.93543e-05 3.26627 0.5 0.00105824
 581 7.93543e-05 3.24089 0.5 0.00104186
 582 7.93543e-05 0.436828 0.5 1.89278e-05
 583 7.93543e-05 2.76784 0.5 0.000759913
 584 7.93543e-05 2.09676 0.5 0.000436093
 585 7.93543e-05 2.08924 0.5 0.000432969
 586 7.93543e-05 3.3566 0.5 0.00111758
 587 7.93543e-05 0.643835 0.5 4.11178e-05
 588 7.93543e-05 2.02403 0.5 0.000406364
 589 7.93543e-05 2.16084 0.5 0.000463156
 590 7.93543e-05 2.23983 0.5 0.000497637
 591 7.93543e-05 0.93176 0.5 8.6117e-05
 592 7.93543e-05 0.663951 0.5 4.37273e-05
 593 7.93543e-05 2.08061 0.5 0.000429402
 594 7.93543e-05 1.59963 0.5 0.000253817
 595 7.93543e-05 2.07513 0.5 0.000427141
 596 7.93543e-05 2.10559 0.5 0.000439773
 597 7.93543e-05 2.76458 0.5 0.000758124
 598 7.93543e-05 2.68453 0.5 0.000714851
 599 7.93543e-05 2.10119 0.5 0.000437935
 600 7.93543e-05 2.22839 0.5 0.000492562
 601 7.93543e-05 2.07916 0.5 0.000428802
 602 7.93543e-05 1.96388 0.5 0.00038257
 603 7.93543e-05 2.0999 0.5 0.000437399
 604 7.93543e-05 3.34545 0.5 0.00111017
 605 7.93543e-05 2.08033 0.5 0.000429284
 606 7.93543e-05 1.58985 0.5 0.000250724
 607 7.93543e-05 1.14131 0.5 0.000129207
 608 7.93543e-05 2.28371 0.5 0.000517323
 609 7.93543e-05 2.18343 0.5 0.000472889
 610 7.93543e-05 2.58115 0.5 0.000660855
 611 7.93543e-05 2.0839 0.5 0.00043076
 612 7.93543e-05 2.77589 0.5 0.000764337
 613 7.93543e-05 3.10983 0.5 0.000959296
 614 7.93543e-05 2.09761 0.5 0.000436446
 615 7.93543e-05 2.27384 0.5 0.000512862
 616 7.93543e-05 2.0753 0.5 0.000427212
 617 7.93543e-05 2.31928 0.5 0.000533566
 618 7.93543e-05 2.1328 0.5 0.00045121
 619 7.93543e-05 0.839877 0.5 6.997e-05
 620 7.93543e-05 3.09392 0.5 0.00094951
 621 7.93543e-05 0.20812 0.5 4.29644e-06
 622 7.93543e-05 1.25035 0.5 0.000155076
 623 7.93543e-05 2.10645 0.5 0.000440132
 624 7.93543e-05 2.09847 0.5 0.000436803
 625 7.93543e-05 1.38372 0.5 0.000189923
 626 7.93543e-05 2.51088 0.5 0.000625363
 627 7.93543e-05 2.08475 0.5 0.000431109
 628 7.93543e-05 2.25638 0.5 0.000505014
 629 7.93543e-05 3.24168 0.5 0.00104237
 630 7.93543e-05 2.37425 0.5 0.000559154
 631 7.93543e-05 1.6259 0.5 0.000262221
 632 7.93543e-05 2.07913 0.5 0.000428791
 633 7.93543e-05 2.51494 0.5 0.000627388
 634 7.93543e-05 2.55578 0.5 0.00064793
 635 7.93543e-05 0.455177 0.5 2.05514e-05
 636 7.93543e-05 2.08284 0.5 0.000430321
 637 7.93543e-05 3.25853 0.5 0.00105323
 638 7.93543e-05 2.08295 0.5 0.000430364
 639 7.93543e-05 2.56852 0.5 0.000654404
 640 7.93543e-05 2.49457 0.5 0.000617266
 641 7.93543e-05 3.24145 0.5 0.00104222
 642 7.93543e-05 2.08832 0.5 0.000432588
 643 7.93543e-05 0.536475 0.5 2.85482e-05
 644 7.93543e-05 3.45883 0.5 0.0011867
 645 7.93543e-05 2.07707 0.5 0.000427941
 646 7.93543e-05 2.1497 0.5 0.00045839
 647 7.93543e-05 3.53726 0.5 0.00124112
 648 7.93543e-05 1.46307 0.5 0.000212329
 649 7.93543e-05 2.08793 0.5 0.000432426
 650 7.93543e-05 3.35603 0.5 0.0011172
 651 7.93543e-05 2.75796 0.5 0.000754496
 652 7.93543e-05 3.4314 0.5 0.00116795
 653 7.93543e-05 2.07489 0.5 0.000427041
 654 7.93543e-05 2.67962 0.5 0.000712242
 655 7.93543e-05 2.9888 0.5 0.000886082
 656 7.93543e-05 2.08907 0.5 0.000432899
 657 7.93543e-05 3.33258 0.5 0.00110164
 658 7.93543e-05 0.128576 0.5 1.63984e-06
 659 7.93543e-05 0.311118 0.5 9.60132e-06
 660 7.93543e-05 2.50248 0.5 0.000621185
 661 7.93543e-05 2.07523 0.5 0.000427184
 662 7.93543e-05 3.24328 0.5 0.0010434
 663 7.93543e-05 1.30258 0.5 0.000168302
 664 7.93543e-05 2.8509 0.5 0.000806204
 665 7.93543e-05 2.07592 0.5 0.000427466
 666 7.93543e-05 2.39241 0.5 0.000567745
 667 7.93543e-05 3.54676 0.5 0.0012478
 668 7.93543e-05 1.33111 0.5 0.000175755
 669 7.93543e-05 2.14371 0.5 0.000455841
 670 7.93543e-05 2.53401 0.5 0.000636937
 671 7.93543e-05 0.430686 0.5 1.83994e-05
 672 7.93543e-05 2.47188 0.5 0.00060609
 673 7.93543e-05 1.67957 0.5 0.000279817
 674 7.93543e-05 2.09593 0.5 0.000435749
 675 7.93543e-05 2.16555 0.5 0.000465174
 676 7.93543e-05 0.912786 0.5 8.26453e-05
 677 7.93543e-05 2.65088 0.5 0.000697043
 678 7.93543e-05 2.0978 0.5 0.000436526
 679 7.93543e-05 2.08772 0.5 0.000432342
 680 7.93543e-05 1.24197 0.5 0.000153004
 681 7.93543e-05 2.08534 0.5 0.000431356
 682 7.93543e-05 2.56163 0.5 0.000650897
 683 7.93543e-05 2.07995 0.5 0.000429126
 684 7.93543e-05 2.09071 0.5 0.00043358
 685 7.93543e-05 1.46206 0.5 0.000212036
 686 7.93543e-05 3.09039 0.5 0.000947344
 687 7.93543e-05 2.09619 0.5 0.000435856
 688 7.93543e-05 2.38212 0.5 0.000562871
 689 7.93543e-05 2.73138 0.5 0.000740022
 690 7.93543e-05 0.286487 0.5 8.14122e-06
 691 7.93543e-05 2.89481 0.5 0.000831228
 692 7.93543e-05 3.52096 0.5 0.00122971
 693 7.93543e-05 3.41191 0.5 0.00115472
 694 7.93543e-05 2.0876 0.5 0.000432291
 695 7.93543e-05 1.67018 0.5 0.0002767
 696 7.93543e-05 2.08938 0.5 0.000433029
 697 7.93543e-05 2.16459 0.5 0.000464763
 698 7.93543e-05 2.07508 0.5 0.000427121
 699 7.93543e-05 2.98416 0.5 0.000883336
 700 7.93543e-05 2.09536 0.5 0.000435508
 701 7.93543e-05 2.75866 0.5 0.000754877
 702 7.93543e-05 3.36802 0.5 0.0011252
 703 7.93543e-05 2.11485 0.5 0.00044365
 704 7.93543e-05 2.55174 0.5 0.00064588
 705 7.93543e-05 3.21774 0.5 0.00102703
 706 7.93543e-05 3.27043 0.5 0.00106094
 707 7.93543e-05 3.03464 0.5 0.000913472
 708 7.93543e-05 2.08243 0.5 0.000430152
 709 7.93543e-05 2.60717 0.5 0.00067425
 710 7.93543e-05 2.1117 0.5 0.00044233
 711 7.93543e-05 2.07779 0.5 0.000428238
 712 7.93543e-05 1.95658 0.5 0.00037973
 713 7.93543e-05 2.49596 0.5 0.000617954
 714 7.93543e-05 3.0865 0.5 0.000944962
 715 7.93543e-05 2.07721 0.5 0.000427998
 716 7.93543e-05 3.24034 0.5 0.00104151
 717 7.93543e-05 2.49703 0.5 0.000618483
 718 7.93543e-05 2.7154 0.5 0.000731389
 719 7.93543e-05 2.07628 0.5 0.000427615
 720 7.93543e-05 3.24085 0.5 0.00104183
 721 7.93543e-05 0.647746 0.5 4.16189e-05
 722 7.93543e-05 2.79067 0.5 0.000772499
 723 7.93543e-05 2.07473 0.5 0.000426974