lammps cell input
120 atoms
200 bonds
80 angles
160 dihedrals

1 atom types
161 bond types
80 angle types
160 dihedral types
0 60 xlo xhi
0 60 ylo yhi
0 80 zlo zhi

Masses

1 0.009

Bond Coeffs

1 1.13654e-05 160 0.4545 0.303941
 2 1.13654e-05 1.56918 0.4545 2.92345e-05
 3 1.13654e-05 1.56918 0.4545 2.92345e-05
 4 1.13654e-05 160.008 0.4545 0.30397
 5 1.13654e-05 160.008 0.4545 0.30397
 6 1.13654e-05 1.56918 0.4545 2.92345e-05
 7 1.13654e-05 1.56918 0.4545 2.92345e-05
 8 1.13654e-05 160 0.4545 0.303941
 9 1.13654e-05 1.56917 0.4545 2.92342e-05
 10 1.13654e-05 160.008 0.4545 0.30397
 11 1.13654e-05 1.56917 0.4545 2.92342e-05
 12 1.13654e-05 160 0.4545 0.303941
 13 1.13654e-05 1.56919 0.4545 2.92347e-05
 14 1.13654e-05 160.008 0.4545 0.30397
 15 1.13654e-05 1.56919 0.4545 2.92347e-05
 16 1.13654e-05 160 0.4545 0.303941
 17 1.13654e-05 1.5692 0.4545 2.9235e-05
 18 1.13654e-05 160.008 0.4545 0.30397
 19 1.13654e-05 1.5692 0.4545 2.9235e-05
 20 1.13654e-05 160 0.4545 0.303941
 21 1.13654e-05 1.56917 0.4545 2.9234e-05
 22 1.13654e-05 160.008 0.4545 0.30397
 23 1.13654e-05 1.56917 0.4545 2.9234e-05
 24 1.13654e-05 160 0.4545 0.303941
 25 1.13654e-05 1.56917 0.4545 2.9234e-05
 26 1.13654e-05 160.008 0.4545 0.30397
 27 1.13654e-05 1.56917 0.4545 2.9234e-05
 28 1.13654e-05 160 0.4545 0.303941
 29 1.13654e-05 1.5692 0.4545 2.9235e-05
 30 1.13654e-05 160.008 0.4545 0.30397
 31 1.13654e-05 1.5692 0.4545 2.9235e-05
 32 1.13654e-05 160 0.4545 0.303941
 33 1.13654e-05 1.56919 0.4545 2.92347e-05
 34 1.13654e-05 160.008 0.4545 0.30397
 35 1.13654e-05 1.56919 0.4545 2.92347e-05
 36 1.13654e-05 160 0.4545 0.303941
 37 1.13654e-05 1.56917 0.4545 2.92342e-05
 38 1.13654e-05 160.008 0.4545 0.30397
 39 1.13654e-05 1.56917 0.4545 2.92342e-05
 40 1.13654e-05 160 0.4545 0.303941
 41 1.13654e-05 1.56918 0.4545 2.92345e-05
 42 1.13654e-05 160.008 0.4545 0.30397
 43 1.13654e-05 1.56918 0.4545 2.92345e-05
 44 1.13654e-05 160 0.4545 0.303941
 45 1.13654e-05 1.56918 0.4545 2.92345e-05
 46 1.13654e-05 160.008 0.4545 0.30397
 47 1.13654e-05 1.56918 0.4545 2.92345e-05
 48 1.13654e-05 160 0.4545 0.303941
 49 1.13654e-05 1.56917 0.4545 2.92342e-05
 50 1.13654e-05 160.008 0.4545 0.30397
 51 1.13654e-05 1.56917 0.4545 2.92342e-05
 52 1.13654e-05 160 0.4545 0.303941
 53 1.13654e-05 1.56919 0.4545 2.92347e-05
 54 1.13654e-05 160.008 0.4545 0.30397
 55 1.13654e-05 1.56919 0.4545 2.92347e-05
 56 1.13654e-05 160 0.4545 0.303941
 57 1.13654e-05 1.5692 0.4545 2.9235e-05
 58 1.13654e-05 160.008 0.4545 0.30397
 59 1.13654e-05 1.5692 0.4545 2.9235e-05
 60 1.13654e-05 160 0.4545 0.303941
 61 1.13654e-05 1.56917 0.4545 2.9234e-05
 62 1.13654e-05 160.008 0.4545 0.30397
 63 1.13654e-05 1.56917 0.4545 2.9234e-05
 64 1.13654e-05 160 0.4545 0.303941
 65 1.13654e-05 1.56917 0.4545 2.9234e-05
 66 1.13654e-05 160.008 0.4545 0.30397
 67 1.13654e-05 1.56917 0.4545 2.9234e-05
 68 1.13654e-05 160 0.4545 0.303941
 69 1.13654e-05 1.5692 0.4545 2.9235e-05
 70 1.13654e-05 160.008 0.4545 0.30397
 71 1.13654e-05 1.5692 0.4545 2.9235e-05
 72 1.13654e-05 160 0.4545 0.303941
 73 1.13654e-05 1.56919 0.4545 2.92347e-05
 74 1.13654e-05 160.008 0.4545 0.30397
 75 1.13654e-05 1.56919 0.4545 2.92347e-05
 76 1.13654e-05 160 0.4545 0.303941
 77 1.13654e-05 1.56917 0.4545 2.92342e-05
 78 1.13654e-05 160.008 0.4545 0.30397
 79 1.13654e-05 1.56917 0.4545 2.92342e-05
 80 1.13654e-05 160 0.4545 0.303941
 81 1.13654e-05 1.56918 0.4545 2.92345e-05
 82 1.13654e-05 160.008 0.4545 0.30397
 83 1.13654e-05 1.56918 0.4545 2.92345e-05
 84 1.13654e-05 160 0.4545 0.303941
 85 1.13654e-05 1.56918 0.4545 2.92345e-05
 86 1.13654e-05 160.008 0.4545 0.30397
 87 1.13654e-05 1.56918 0.4545 2.92345e-05
 88 1.13654e-05 160 0.4545 0.303941
 89 1.13654e-05 1.56917 0.4545 2.92342e-05
 90 1.13654e-05 160.008 0.4545 0.30397
 91 1.13654e-05 1.56917 0.4545 2.92342e-05
 92 1.13654e-05 160 0.4545 0.303941
 93 1.13654e-05 1.56919 0.4545 2.92347e-05
 94 1.13654e-05 160.008 0.4545 0.30397
 95 1.13654e-05 1.56919 0.4545 2.92347e-05
 96 1.13654e-05 160 0.4545 0.303941
 97 1.13654e-05 1.5692 0.4545 2.9235e-05
 98 1.13654e-05 160.008 0.4545 0.30397
 99 1.13654e-05 1.5692 0.4545 2.9235e-05
 100 1.13654e-05 160 0.4545 0.303941
 101 1.13654e-05 1.56917 0.4545 2.9234e-05
 102 1.13654e-05 160.008 0.4545 0.30397
 103 1.13654e-05 1.56917 0.4545 2.9234e-05
 104 1.13654e-05 160 0.4545 0.303941
 105 1.13654e-05 1.56917 0.4545 2.9234e-05
 106 1.13654e-05 160.008 0.4545 0.30397
 107 1.13654e-05 1.56917 0.4545 2.9234e-05
 108 1.13654e-05 160 0.4545 0.303941
 109 1.13654e-05 1.5692 0.4545 2.9235e-05
 110 1.13654e-05 160.008 0.4545 0.30397
 111 1.13654e-05 1.5692 0.4545 2.9235e-05
 112 1.13654e-05 160 0.4545 0.303941
 113 1.13654e-05 1.56919 0.4545 2.92347e-05
 114 1.13654e-05 160.008 0.4545 0.30397
 115 1.13654e-05 1.56919 0.4545 2.92347e-05
 116 1.13654e-05 160 0.4545 0.303941
 117 1.13654e-05 1.56917 0.4545 2.92342e-05
 118 1.13654e-05 160.008 0.4545 0.30397
 119 1.13654e-05 1.56917 0.4545 2.92342e-05
 120 1.13654e-05 160 0.4545 0.303941
 121 1.13654e-05 1.56918 0.4545 2.92345e-05
 122 1.13654e-05 160.008 0.4545 0.30397
 123 1.13654e-05 1.56918 0.4545 2.92345e-05
 124 1.13654e-05 160 0.4545 0.303941
 125 1.13654e-05 1.56918 0.4545 2.92345e-05
 126 1.13654e-05 160.008 0.4545 0.30397
 127 1.13654e-05 1.56918 0.4545 2.92345e-05
 128 1.13654e-05 160 0.4545 0.303941
 129 1.13654e-05 1.56917 0.4545 2.92342e-05
 130 1.13654e-05 160.008 0.4545 0.30397
 131 1.13654e-05 1.56917 0.4545 2.92342e-05
 132 1.13654e-05 160 0.4545 0.303941
 133 1.13654e-05 1.56919 0.4545 2.92347e-05
 134 1.13654e-05 160.008 0.4545 0.30397
 135 1.13654e-05 1.56919 0.4545 2.92347e-05
 136 1.13654e-05 160 0.4545 0.303941
 137 1.13654e-05 1.5692 0.4545 2.9235e-05
 138 1.13654e-05 160.008 0.4545 0.30397
 139 1.13654e-05 1.5692 0.4545 2.9235e-05
 140 1.13654e-05 160 0.4545 0.303941
 141 1.13654e-05 1.56917 0.4545 2.9234e-05
 142 1.13654e-05 160.008 0.4545 0.30397
 143 1.13654e-05 1.56917 0.4545 2.9234e-05
 144 1.13654e-05 160 0.4545 0.303941
 145 1.13654e-05 1.56917 0.4545 2.9234e-05
 146 1.13654e-05 160.008 0.4545 0.30397
 147 1.13654e-05 1.56917 0.4545 2.9234e-05
 148 1.13654e-05 160 0.4545 0.303941
 149 1.13654e-05 1.5692 0.4545 2.9235e-05
 150 1.13654e-05 160.008 0.4545 0.30397
 151 1.13654e-05 1.5692 0.4545 2.9235e-05
 152 1.13654e-05 160 0.4545 0.303941
 153 1.13654e-05 1.56919 0.4545 2.92347e-05
 154 1.13654e-05 160.008 0.4545 0.30397
 155 1.13654e-05 1.56919 0.4545 2.92347e-05
 156 1.13654e-05 160 0.4545 0.303941
 157 1.13654e-05 1.56917 0.4545 2.92342e-05
 158 1.13654e-05 160.008 0.4545 0.30397
 159 1.13654e-05 1.56917 0.4545 2.92342e-05
 160 1.13654e-05 160 0.4545 0.303941
 161 0.000113654 2 0.4545 0.000474907
 
Angle Coeffs

1 0 0 0 10042.8 0 33372.6 0 125.535
2 0 0 0 10042.8 0 33372.6 0 125.535
3 0 0 0 10042.8 0 33372.6 0 125.534
4 0 0 0 10042.8 0 33372.6 0 125.534
5 0 0 0 10042.8 0 33372.6 0 125.535
6 0 0 0 10042.8 0 33372.6 0 125.535
7 0 0 0 10042.8 0 33372.6 0 125.536
8 0 0 0 10042.8 0 33372.6 0 125.536
9 0 0 0 10042.8 0 33372.6 0 125.534
10 0 0 0 10042.8 0 33372.6 0 125.534
11 0 0 0 10042.8 0 33372.6 0 125.534
12 0 0 0 10042.8 0 33372.6 0 125.534
13 0 0 0 10042.8 0 33372.6 0 125.536
14 0 0 0 10042.8 0 33372.6 0 125.536
15 0 0 0 10042.8 0 33372.6 0 125.535
16 0 0 0 10042.8 0 33372.6 0 125.535
17 0 0 0 10042.8 0 33372.6 0 125.534
18 0 0 0 10042.8 0 33372.6 0 125.534
19 0 0 0 10042.8 0 33372.6 0 125.535
20 0 0 0 10042.8 0 33372.6 0 125.535
21 0 0 0 10042.8 0 33372.6 0 125.535
22 0 0 0 10042.8 0 33372.6 0 125.535
23 0 0 0 10042.8 0 33372.6 0 125.534
24 0 0 0 10042.8 0 33372.6 0 125.534
25 0 0 0 10042.8 0 33372.6 0 125.535
26 0 0 0 10042.8 0 33372.6 0 125.535
27 0 0 0 10042.8 0 33372.6 0 125.536
28 0 0 0 10042.8 0 33372.6 0 125.536
29 0 0 0 10042.8 0 33372.6 0 125.534
30 0 0 0 10042.8 0 33372.6 0 125.534
31 0 0 0 10042.8 0 33372.6 0 125.534
32 0 0 0 10042.8 0 33372.6 0 125.534
33 0 0 0 10042.8 0 33372.6 0 125.536
34 0 0 0 10042.8 0 33372.6 0 125.536
35 0 0 0 10042.8 0 33372.6 0 125.535
36 0 0 0 10042.8 0 33372.6 0 125.535
37 0 0 0 10042.8 0 33372.6 0 125.534
38 0 0 0 10042.8 0 33372.6 0 125.534
39 0 0 0 10042.8 0 33372.6 0 125.535
40 0 0 0 10042.8 0 33372.6 0 125.535
41 0 0 0 10042.8 0 33372.6 0 125.535
42 0 0 0 10042.8 0 33372.6 0 125.535
43 0 0 0 10042.8 0 33372.6 0 125.534
44 0 0 0 10042.8 0 33372.6 0 125.534
45 0 0 0 10042.8 0 33372.6 0 125.535
46 0 0 0 10042.8 0 33372.6 0 125.535
47 0 0 0 10042.8 0 33372.6 0 125.536
48 0 0 0 10042.8 0 33372.6 0 125.536
49 0 0 0 10042.8 0 33372.6 0 125.534
50 0 0 0 10042.8 0 33372.6 0 125.534
51 0 0 0 10042.8 0 33372.6 0 125.534
52 0 0 0 10042.8 0 33372.6 0 125.534
53 0 0 0 10042.8 0 33372.6 0 125.536
54 0 0 0 10042.8 0 33372.6 0 125.536
55 0 0 0 10042.8 0 33372.6 0 125.535
56 0 0 0 10042.8 0 33372.6 0 125.535
57 0 0 0 10042.8 0 33372.6 0 125.534
58 0 0 0 10042.8 0 33372.6 0 125.534
59 0 0 0 10042.8 0 33372.6 0 125.535
60 0 0 0 10042.8 0 33372.6 0 125.535
61 0 0 0 10042.8 0 33372.6 0 125.535
62 0 0 0 10042.8 0 33372.6 0 125.535
63 0 0 0 10042.8 0 33372.6 0 125.534
64 0 0 0 10042.8 0 33372.6 0 125.534
65 0 0 0 10042.8 0 33372.6 0 125.535
66 0 0 0 10042.8 0 33372.6 0 125.535
67 0 0 0 10042.8 0 33372.6 0 125.536
68 0 0 0 10042.8 0 33372.6 0 125.536
69 0 0 0 10042.8 0 33372.6 0 125.534
70 0 0 0 10042.8 0 33372.6 0 125.534
71 0 0 0 10042.8 0 33372.6 0 125.534
72 0 0 0 10042.8 0 33372.6 0 125.534
73 0 0 0 10042.8 0 33372.6 0 125.536
74 0 0 0 10042.8 0 33372.6 0 125.536
75 0 0 0 10042.8 0 33372.6 0 125.535
76 0 0 0 10042.8 0 33372.6 0 125.535
77 0 0 0 10042.8 0 33372.6 0 125.534
78 0 0 0 10042.8 0 33372.6 0 125.534
79 0 0 0 10042.8 0 33372.6 0 125.535
80 0 0 0 10042.8 0 33372.6 0 125.535

Dihedral Coeffs

1 0 189
2 0 0
3 0 0
4 0 0
5 0 0
6 0 0
7 0 0
8 0 189
9 0 0
10 0 0
11 0 0
12 0 189
13 0 0
14 0 0
15 0 0
16 0 189
17 0 0
18 0 0
19 0 0
20 0 189
21 0 0
22 0 0
23 0 0
24 0 189
25 0 0
26 0 0
27 0 0
28 0 189
29 0 0
30 0 0
31 0 0
32 0 189
33 0 0
34 0 0
35 0 0
36 0 189
37 0 0
38 0 0
39 0 0
40 0 189
41 0 0
42 0 0
43 0 0
44 0 189
45 0 0
46 0 0
47 0 0
48 0 189
49 0 0
50 0 0
51 0 0
52 0 189
53 0 0
54 0 0
55 0 0
56 0 189
57 0 0
58 0 0
59 0 0
60 0 189
61 0 0
62 0 0
63 0 0
64 0 189
65 0 0
66 0 0
67 0 0
68 0 189
69 0 0
70 0 0
71 0 0
72 0 189
73 0 0
74 0 180
75 0 0
76 0 189
77 0 0
78 0 0
79 0 0
80 0 189
81 0 0
82 0 0
83 0 0
84 0 189
85 0 0
86 0 0
87 0 0
88 0 189
89 0 0
90 0 180
91 0 0
92 0 189
93 0 0
94 0 0
95 0 0
96 0 189
97 0 0
98 0 0
99 0 0
100 0 189
101 0 0
102 0 0
103 0 0
104 0 189
105 0 0
106 0 180
107 0 0
108 0 189
109 0 0
110 0 0
111 0 0
112 0 189
113 0 0
114 0 0
115 0 0
116 0 189
117 0 0
118 0 0
119 0 0
120 0 189
121 0 0
122 0 0
123 0 0
124 0 189
125 0 0
126 0 0
127 0 0
128 0 189
129 0 0
130 0 0
131 0 0
132 0 189
133 0 0
134 0 0
135 0 0
136 0 189
137 0 0
138 0 0
139 0 0
140 0 189
141 0 0
142 0 0
143 0 0
144 0 189
145 0 0
146 0 0
147 0 0
148 0 189
149 0 0
150 0 0
151 0 0
152 0 189
153 0 0
154 0 0
155 0 0
156 0 189
157 0 0
158 0 180
159 0 0
160 0 189

Atoms

1 1 1 31.8 21.8 1.6
2 1 1 31.8 21.8 161.6
3 1 1 31.6769 20.2357 1.6
4 1 1 31.6769 20.2357 161.6
5 1 1 31.3106 18.7098 1.6
6 1 1 31.3106 18.7098 161.6
7 1 1 30.7101 17.2601 1.6
8 1 1 30.7101 17.2601 161.6
9 1 1 29.8902 15.9221 1.6
10 1 1 29.8902 15.9221 161.6
11 1 1 28.8711 14.7289 1.6
12 1 1 28.8711 14.7289 161.6
13 1 1 27.6779 13.7098 1.6
14 1 1 27.6779 13.7098 161.6
15 1 1 26.3399 12.8899 1.6
16 1 1 26.3399 12.8899 161.6
17 1 1 24.8902 12.2894 1.6
18 1 1 24.8902 12.2894 161.6
19 1 1 23.3643 11.9231 1.6
20 1 1 23.3643 11.9231 161.6
21 1 1 21.8 11.8 1.6
22 1 1 21.8 11.8 161.6
23 1 1 20.2357 11.9231 1.6
24 1 1 20.2357 11.9231 161.6
25 1 1 18.7098 12.2894 1.6
26 1 1 18.7098 12.2894 161.6
27 1 1 17.2601 12.8899 1.6
28 1 1 17.2601 12.8899 161.6
29 1 1 15.9221 13.7098 1.6
30 1 1 15.9221 13.7098 161.6
31 1 1 14.7289 14.7289 1.6
32 1 1 14.7289 14.7289 161.6
33 1 1 13.7098 15.9221 1.6
34 1 1 13.7098 15.9221 161.6
35 1 1 12.8899 17.2601 1.6
36 1 1 12.8899 17.2601 161.6
37 1 1 12.2894 18.7098 1.6
38 1 1 12.2894 18.7098 161.6
39 1 1 11.9231 20.2357 1.6
40 1 1 11.9231 20.2357 161.6
41 1 1 11.8 21.8 1.6
42 1 1 11.8 21.8 161.6
43 1 1 11.9231 23.3643 1.6
44 1 1 11.9231 23.3643 161.6
45 1 1 12.2894 24.8902 1.6
46 1 1 12.2894 24.8902 161.6
47 1 1 12.8899 26.3399 1.6
48 1 1 12.8899 26.3399 161.6
49 1 1 13.7098 27.6779 1.6
50 1 1 13.7098 27.6779 161.6
51 1 1 14.7289 28.8711 1.6
52 1 1 14.7289 28.8711 161.6
53 1 1 15.9221 29.8902 1.6
54 1 1 15.9221 29.8902 161.6
55 1 1 17.2601 30.7101 1.6
56 1 1 17.2601 30.7101 161.6
57 1 1 18.7098 31.3106 1.6
58 1 1 18.7098 31.3106 161.6
59 1 1 20.2357 31.6769 1.6
60 1 1 20.2357 31.6769 161.6
61 1 1 21.8 31.8 1.6
62 1 1 21.8 31.8 161.6
63 1 1 23.3643 31.6769 1.6
64 1 1 23.3643 31.6769 161.6
65 1 1 24.8902 31.3106 1.6
66 1 1 24.8902 31.3106 161.6
67 1 1 26.3399 30.7101 1.6
68 1 1 26.3399 30.7101 161.6
69 1 1 27.6779 29.8902 1.6
70 1 1 27.6779 29.8902 161.6
71 1 1 28.8711 28.8711 1.6
72 1 1 28.8711 28.8711 161.6
73 1 1 29.8902 27.6779 1.6
74 1 1 29.8902 27.6779 161.6
75 1 1 30.7101 26.3399 1.6
76 1 1 30.7101 26.3399 161.6
77 1 1 31.3106 24.8902 1.6
78 1 1 31.3106 24.8902 161.6
79 1 1 31.6769 23.3643 1.6
80 1 1 31.6769 23.3643 161.6
81 2 1 33.8 21.8 1.6
82 2 1 33.6523 19.9228 1.6
83 2 1 33.2127 18.0918 1.6
84 2 1 32.4921 16.3521 1.6
85 2 1 31.5082 14.7466 1.6
86 2 1 30.2853 13.3147 1.6
87 2 1 28.8534 12.0918 1.6
88 2 1 27.2479 11.1079 1.6
89 2 1 25.5082 10.3873 1.6
90 2 1 23.6772 9.94774 1.6
91 2 1 21.8 9.8 1.6
92 2 1 19.9228 9.94774 1.6
93 2 1 18.0918 10.3873 1.6
94 2 1 16.3521 11.1079 1.6
95 2 1 14.7466 12.0918 1.6
96 2 1 13.3147 13.3147 1.6
97 2 1 12.0918 14.7466 1.6
98 2 1 11.1079 16.3521 1.6
99 2 1 10.3873 18.0918 1.6
100 2 1 9.94774 19.9228 1.6
101 2 1 9.8 21.8 1.6
102 2 1 9.94774 23.6772 1.6
103 2 1 10.3873 25.5082 1.6
104 2 1 11.1079 27.2479 1.6
105 2 1 12.0918 28.8534 1.6
106 2 1 13.3147 30.2853 1.6
107 2 1 14.7466 31.5082 1.6
108 2 1 16.3521 32.4921 1.6
109 2 1 18.0918 33.2127 1.6
110 2 1 19.9228 33.6523 1.6
111 2 1 21.8 33.8 1.6
112 2 1 23.6772 33.6523 1.6
113 2 1 25.5082 33.2127 1.6
114 2 1 27.2479 32.4921 1.6
115 2 1 28.8534 31.5082 1.6
116 2 1 30.2853 30.2853 1.6
117 2 1 31.5082 28.8534 1.6
118 2 1 32.4921 27.2479 1.6
119 2 1 33.2127 25.5082 1.6
120 2 1 33.6523 23.6772 1.6

Bonds

1 1 1 2
2 2 3 1
3 3 1 79
4 4 80 1
5 5 2 3
6 6 2 4
7 7 80 2
8 8 4 3
9 9 5 3
10 10 4 5
11 11 4 6
12 12 6 5
13 13 7 5
14 14 7 6
15 15 6 8
16 16 7 8
17 17 9 7
18 18 8 9
19 19 8 10
20 20 10 9
21 21 11 9
22 22 10 11
23 23 10 12
24 24 12 11
25 25 13 11
26 26 12 13
27 27 12 14
28 28 14 13
29 29 15 13
30 30 14 15
31 31 14 16
32 32 16 15
33 33 17 15
34 34 17 16
35 35 16 18
36 36 17 18
37 37 19 17
38 38 18 19
39 39 18 20
40 40 20 19
41 41 21 19
42 42 20 21
43 43 20 22
44 44 22 21
45 45 23 21
46 46 22 23
47 47 22 24
48 48 24 23
49 49 25 23
50 50 24 25
51 51 24 26
52 52 26 25
53 53 27 25
54 54 27 26
55 55 26 28
56 56 27 28
57 57 29 27
58 58 28 29
59 59 28 30
60 60 30 29
61 61 31 29
62 62 30 31
63 63 30 32
64 64 32 31
65 65 33 31
66 66 32 33
67 67 32 34
68 68 34 33
69 69 35 33
70 70 34 35
71 71 34 36
72 72 36 35
73 73 37 35
74 74 37 36
75 75 36 38
76 76 37 38
77 77 39 37
78 78 38 39
79 79 38 40
80 80 40 39
81 81 41 39
82 82 40 41
83 83 40 42
84 84 42 41
85 85 43 41
86 86 42 43
87 87 42 44
88 88 44 43
89 89 45 43
90 90 44 45
91 91 44 46
92 92 46 45
93 93 47 45
94 94 47 46
95 95 46 48
96 96 47 48
97 97 49 47
98 98 48 49
99 99 48 50
100 100 50 49
101 101 51 49
102 102 50 51
103 103 50 52
104 104 52 51
105 105 53 51
106 106 52 53
107 107 52 54
108 108 54 53
109 109 55 53
110 110 54 55
111 111 54 56
112 112 56 55
113 113 57 55
114 114 57 56
115 115 56 58
116 116 57 58
117 117 59 57
118 118 58 59
119 119 58 60
120 120 60 59
121 121 61 59
122 122 60 61
123 123 60 62
124 124 62 61
125 125 63 61
126 126 62 63
127 127 62 64
128 128 64 63
129 129 65 63
130 130 64 65
131 131 64 66
132 132 66 65
133 133 67 65
134 134 67 66
135 135 66 68
136 136 67 68
137 137 69 67
138 138 68 69
139 139 68 70
140 140 70 69
141 141 71 69
142 142 70 71
143 143 70 72
144 144 72 71
145 145 73 71
146 146 72 73
147 147 72 74
148 148 74 73
149 149 75 73
150 150 74 75
151 151 74 76
152 152 76 75
153 153 77 75
154 154 77 76
155 155 76 78
156 156 77 78
157 157 79 77
158 158 78 79
159 159 78 80
160 160 80 79
161 161 1 81
162 161 3 82
163 161 5 83
164 161 7 84
165 161 9 85
166 161 11 86
167 161 13 87
168 161 15 88
169 161 17 89
170 161 19 90
171 161 21 91
172 161 23 92
173 161 25 93
174 161 27 94
175 161 29 95
176 161 31 96
177 161 33 97
178 161 35 98
179 161 37 99
180 161 39 100
181 161 41 101
182 161 43 102
183 161 45 103
184 161 47 104
185 161 49 105
186 161 51 106
187 161 53 107
188 161 55 108
189 161 57 109
190 161 59 110
191 161 61 111
192 161 63 112
193 161 65 113
194 161 67 114
195 161 69 115
196 161 71 116
197 161 73 117
198 161 75 118
199 161 77 119
200 161 79 120

Angles

1 1 1 2 3
2 2 4 3 2
3 3 3 4 5
4 4 6 5 4
5 5 5 6 7
6 6 7 6 8
7 7 7 8 9
8 8 10 9 8
9 9 9 10 11
10 10 12 11 10
11 11 11 12 13
12 12 14 13 12
13 13 13 14 15
14 14 16 15 14
15 15 15 16 17
16 16 17 16 18
17 17 17 18 19
18 18 20 19 18
19 19 19 20 21
20 20 22 21 20
21 21 21 22 23
22 22 24 23 22
23 23 23 24 25
24 24 26 25 24
25 25 25 26 27
26 26 27 26 28
27 27 27 28 29
28 28 30 29 28
29 29 29 30 31
30 30 32 31 30
31 31 31 32 33
32 32 34 33 32
33 33 33 34 35
34 34 36 35 34
35 35 35 36 37
36 36 37 36 38
37 37 37 38 39
38 38 40 39 38
39 39 39 40 41
40 40 42 41 40
41 41 41 42 43
42 42 44 43 42
43 43 43 44 45
44 44 46 45 44
45 45 45 46 47
46 46 47 46 48
47 47 47 48 49
48 48 50 49 48
49 49 49 50 51
50 50 52 51 50
51 51 51 52 53
52 52 54 53 52
53 53 53 54 55
54 54 56 55 54
55 55 55 56 57
56 56 57 56 58
57 57 57 58 59
58 58 60 59 58
59 59 59 60 61
60 60 62 61 60
61 61 61 62 63
62 62 64 63 62
63 63 63 64 65
64 64 66 65 64
65 65 65 66 67
66 66 67 66 68
67 67 67 68 69
68 68 70 69 68
69 69 69 70 71
70 70 72 71 70
71 71 71 72 73
72 72 74 73 72
73 73 73 74 75
74 74 76 75 74
75 75 75 76 77
76 76 77 76 78
77 77 77 78 79
78 78 80 79 78
79 79 79 80 1
80 80 2 1 80

Dihedrals

1 1 3 1 2 80
2 2 2 3 1 2
3 3 80 1 79 80
4 4 79 80 1 2
5 5 1 2 3 4
6 6 3 2 4 3
7 7 1 80 2 1
8 8 2 4 3 5
9 9 4 5 3 4
10 10 3 4 5 6
11 11 5 4 6 5
12 12 4 6 5 7
13 13 6 7 5 6
14 14 8 7 6 5
15 15 7 6 8 7
16 16 9 7 8 6
17 17 8 9 7 8
18 18 7 8 9 10
19 19 9 8 10 9
20 20 8 10 9 11
21 21 10 11 9 10
22 22 9 10 11 12
23 23 11 10 12 11
24 24 10 12 11 13
25 25 12 13 11 12
26 26 11 12 13 14
27 27 13 12 14 13
28 28 12 14 13 15
29 29 14 15 13 14
30 30 13 14 15 16
31 31 15 14 16 15
32 32 14 16 15 17
33 33 16 17 15 16
34 34 18 17 16 15
35 35 17 16 18 17
36 36 19 17 18 16
37 37 18 19 17 18
38 38 17 18 19 20
39 39 19 18 20 19
40 40 18 20 19 21
41 41 20 21 19 20
42 42 19 20 21 22
43 43 21 20 22 21
44 44 20 22 21 23
45 45 22 23 21 22
46 46 21 22 23 24
47 47 23 22 24 23
48 48 22 24 23 25
49 49 24 25 23 24
50 50 23 24 25 26
51 51 25 24 26 25
52 52 24 26 25 27
53 53 26 27 25 26
54 54 28 27 26 25
55 55 27 26 28 27
56 56 29 27 28 26
57 57 28 29 27 28
58 58 27 28 29 30
59 59 29 28 30 29
60 60 28 30 29 31
61 61 30 31 29 30
62 62 29 30 31 32
63 63 31 30 32 31
64 64 30 32 31 33
65 65 32 33 31 32
66 66 31 32 33 34
67 67 33 32 34 33
68 68 32 34 33 35
69 69 34 35 33 34
70 70 33 34 35 36
71 71 35 34 36 35
72 72 34 36 35 37
73 73 36 37 35 36
74 74 38 37 36 35
75 75 37 36 38 37
76 76 39 37 38 36
77 77 38 39 37 38
78 78 37 38 39 40
79 79 39 38 40 39
80 80 38 40 39 41
81 81 40 41 39 40
82 82 39 40 41 42
83 83 41 40 42 41
84 84 40 42 41 43
85 85 42 43 41 42
86 86 41 42 43 44
87 87 43 42 44 43
88 88 42 44 43 45
89 89 44 45 43 44
90 90 43 44 45 46
91 91 45 44 46 45
92 92 44 46 45 47
93 93 46 47 45 46
94 94 48 47 46 45
95 95 47 46 48 47
96 96 49 47 48 46
97 97 48 49 47 48
98 98 47 48 49 50
99 99 49 48 50 49
100 100 48 50 49 51
101 101 50 51 49 50
102 102 49 50 51 52
103 103 51 50 52 51
104 104 50 52 51 53
105 105 52 53 51 52
106 106 51 52 53 54
107 107 53 52 54 53
108 108 52 54 53 55
109 109 54 55 53 54
110 110 53 54 55 56
111 111 55 54 56 55
112 112 54 56 55 57
113 113 56 57 55 56
114 114 58 57 56 55
115 115 57 56 58 57
116 116 59 57 58 56
117 117 58 59 57 58
118 118 57 58 59 60
119 119 59 58 60 59
120 120 58 60 59 61
121 121 60 61 59 60
122 122 59 60 61 62
123 123 61 60 62 61
124 124 60 62 61 63
125 125 62 63 61 62
126 126 61 62 63 64
127 127 63 62 64 63
128 128 62 64 63 65
129 129 64 65 63 64
130 130 63 64 65 66
131 131 65 64 66 65
132 132 64 66 65 67
133 133 66 67 65 66
134 134 68 67 66 65
135 135 67 66 68 67
136 136 69 67 68 66
137 137 68 69 67 68
138 138 67 68 69 70
139 139 69 68 70 69
140 140 68 70 69 71
141 141 70 71 69 70
142 142 69 70 71 72
143 143 71 70 72 71
144 144 70 72 71 73
145 145 72 73 71 72
146 146 71 72 73 74
147 147 73 72 74 73
148 148 72 74 73 75
149 149 74 75 73 74
150 150 73 74 75 76
151 151 75 74 76 75
152 152 74 76 75 77
153 153 76 77 75 76
154 154 78 77 76 75
155 155 77 76 78 77
156 156 79 77 78 76
157 157 78 79 77 78
158 158 77 78 79 80
159 159 79 78 80 79
160 160 78 80 79 1

