lammps cell input
8 atoms
16 bonds
8 angles
8 dihedrals

1 atom types
16 bond types
8 angle types
8 dihedral types
0 60 xlo xhi
0 60 ylo yhi
0 80 zlo zhi

Masses

1 0.09

Bond Coeffs

1 4.09784e-05 20 0.4545 0.017123
 2 4.09784e-05 14.1421 0.4545 0.00856152
 3 4.09784e-05 14.1421 0.4545 0.00856152
 4 4.09784e-05 24.4949 0.4545 0.0256845
 5 4.09784e-05 24.4949 0.4545 0.0256845
 6 4.09784e-05 14.1421 0.4545 0.00856152
 7 4.09784e-05 14.1421 0.4545 0.00856152
 8 4.09784e-05 20 0.4545 0.017123
 9 4.09784e-05 14.1421 0.4545 0.00856152
 10 4.09784e-05 24.4949 0.4545 0.0256845
 11 4.09784e-05 14.1421 0.4545 0.00856152
 12 4.09784e-05 20 0.4545 0.017123
 13 4.09784e-05 14.1421 0.4545 0.00856152
 14 4.09784e-05 24.4949 0.4545 0.0256845
 15 4.09784e-05 14.1421 0.4545 0.00856152
 16 4.09784e-05 20 0.4545 0.017123
#  17 0.000409784 2 0.4545 0.0017123
 
Angle Coeffs

1 0 0 0 1131.37 0 2666.67 0 141.421
2 0 0 0 1131.37 0 2666.67 0 141.421
3 0 0 0 1131.37 0 2666.67 0 141.421
4 0 0 0 1131.37 0 2666.67 0 141.421
5 0 0 0 1131.37 0 2666.67 0 141.421
6 0 0 0 1131.37 0 2666.67 0 141.421
7 0 0 0 1131.37 0 2666.67 0 141.421
8 0 0 0 1131.37 0 2666.67 0 141.421

Dihedral Coeffs

1 0 270
2 0 0
3 0 270
4 0 0
5 0 270
6 0 0
7 0 270
8 0 0


Atoms

1 1 1 31.8 21.8 1.6
2 1 1 31.8 21.8 21.6
3 1 1 21.8 11.8 1.6
4 1 1 21.8 11.8 21.6
5 1 1 11.8 21.8 1.6
6 1 1 11.8 21.8 21.6
7 1 1 21.8 31.8 1.6
8 1 1 21.8 31.8 21.6

Bonds

1 1 1 2
2 2 3 1
3 3 1 7
4 4 8 1
5 5 2 3
6 6 2 4
7 7 8 2
8 8 4 3
9 9 5 3
10 10 4 5
11 11 4 6
12 12 6 5
13 13 7 5
14 14 6 7
15 15 6 8
16 16 8 7


Angles

1 1 1 2 3
2 2 4 3 2
3 3 3 4 5
4 4 6 5 4
5 5 5 6 7
6 6 8 7 6
7 7 7 8 1
8 8 2 1 8

Dihedrals

1 1 3 1 2 8
2 2 7 8 1 2
3 3 1 2 3 4
4 4 2 4 3 5
5 5 3 4 5 6
6 6 4 6 5 7
7 7 5 6 7 8
8 8 6 8 7 1

