lammps cell input
646 atoms
960 bonds
480 angles
480 dihedrals

1 atom types
960 bond types
480 angle types
960 dihedral types
0 60 xlo xhi
0 60 ylo yhi
0 80 zlo zhi

Masses

1 0.0015

Bond Coeffs

1 4.5911e-06 20 0.4545 0.00191841
 2 4.5911e-06 0.261792 0.4545 3.28697e-07
 3 4.5911e-06 0.261802 0.4545 3.28722e-07
 4 4.5911e-06 20.0017 0.4545 0.00191874
 5 4.5911e-06 20.0017 0.4545 0.00191874
 6 4.5911e-06 0.261792 0.4545 3.28697e-07
 7 4.5911e-06 0.261802 0.4545 3.28722e-07
 8 4.5911e-06 20 0.4545 0.00191841
 9 4.5911e-06 0.261792 0.4545 3.28696e-07
 10 4.5911e-06 20.0017 0.4545 0.00191874
 11 4.5911e-06 0.261792 0.4545 3.28696e-07
 12 4.5911e-06 20 0.4545 0.00191841
 13 4.5911e-06 0.261792 0.4545 3.28697e-07
 14 4.5911e-06 20.0017 0.4545 0.00191874
 15 4.5911e-06 0.261792 0.4545 3.28697e-07
 16 4.5911e-06 20 0.4545 0.00191841
 17 4.5911e-06 0.261791 0.4545 3.28693e-07
 18 4.5911e-06 20.0017 0.4545 0.00191874
 19 4.5911e-06 0.261791 0.4545 3.28693e-07
 20 4.5911e-06 20 0.4545 0.00191841
 21 4.5911e-06 0.261794 0.4545 3.28701e-07
 22 4.5911e-06 20.0017 0.4545 0.00191874
 23 4.5911e-06 0.261794 0.4545 3.28701e-07
 24 4.5911e-06 20 0.4545 0.00191841
 25 4.5911e-06 0.26179 0.4545 3.28693e-07
 26 4.5911e-06 20.0017 0.4545 0.00191874
 27 4.5911e-06 0.26179 0.4545 3.28693e-07
 28 4.5911e-06 20 0.4545 0.00191841
 29 4.5911e-06 0.261791 0.4545 3.28694e-07
 30 4.5911e-06 20.0017 0.4545 0.00191874
 31 4.5911e-06 0.261791 0.4545 3.28694e-07
 32 4.5911e-06 20 0.4545 0.00191841
 33 4.5911e-06 0.261792 0.4545 3.28696e-07
 34 4.5911e-06 20.0017 0.4545 0.00191874
 35 4.5911e-06 0.261792 0.4545 3.28696e-07
 36 4.5911e-06 20 0.4545 0.00191841
 37 4.5911e-06 0.261794 0.4545 3.28701e-07
 38 4.5911e-06 20.0017 0.4545 0.00191874
 39 4.5911e-06 0.261794 0.4545 3.28701e-07
 40 4.5911e-06 20 0.4545 0.00191841
 41 4.5911e-06 0.261791 0.4545 3.28694e-07
 42 4.5911e-06 20.0017 0.4545 0.00191874
 43 4.5911e-06 0.261791 0.4545 3.28694e-07
 44 4.5911e-06 20 0.4545 0.00191841
 45 4.5911e-06 0.261791 0.4545 3.28693e-07
 46 4.5911e-06 20.0017 0.4545 0.00191874
 47 4.5911e-06 0.261791 0.4545 3.28693e-07
 48 4.5911e-06 20 0.4545 0.00191841
 49 4.5911e-06 0.261796 0.4545 3.28706e-07
 50 4.5911e-06 20.0017 0.4545 0.00191874
 51 4.5911e-06 0.261796 0.4545 3.28706e-07
 52 4.5911e-06 20 0.4545 0.00191841
 53 4.5911e-06 0.261788 0.4545 3.28686e-07
 54 4.5911e-06 20.0017 0.4545 0.00191874
 55 4.5911e-06 0.261788 0.4545 3.28686e-07
 56 4.5911e-06 20 0.4545 0.00191841
 57 4.5911e-06 0.261796 0.4545 3.28707e-07
 58 4.5911e-06 20.0017 0.4545 0.00191874
 59 4.5911e-06 0.261796 0.4545 3.28707e-07
 60 4.5911e-06 20 0.4545 0.00191841
 61 4.5911e-06 0.261788 0.4545 3.28686e-07
 62 4.5911e-06 20.0017 0.4545 0.00191874
 63 4.5911e-06 0.261788 0.4545 3.28686e-07
 64 4.5911e-06 20 0.4545 0.00191841
 65 4.5911e-06 0.261792 0.4545 3.28695e-07
 66 4.5911e-06 20.0017 0.4545 0.00191874
 67 4.5911e-06 0.261792 0.4545 3.28695e-07
 68 4.5911e-06 20 0.4545 0.00191841
 69 4.5911e-06 0.261791 0.4545 3.28693e-07
 70 4.5911e-06 20.0017 0.4545 0.00191874
 71 4.5911e-06 0.261791 0.4545 3.28693e-07
 72 4.5911e-06 20 0.4545 0.00191841
 73 4.5911e-06 0.261799 0.4545 3.28715e-07
 74 4.5911e-06 20.0017 0.4545 0.00191874
 75 4.5911e-06 0.261799 0.4545 3.28715e-07
 76 4.5911e-06 20 0.4545 0.00191841
 77 4.5911e-06 0.261794 0.4545 3.28702e-07
 78 4.5911e-06 20.0017 0.4545 0.00191874
 79 4.5911e-06 0.261794 0.4545 3.28702e-07
 80 4.5911e-06 20 0.4545 0.00191841
 81 4.5911e-06 0.261783 0.4545 3.28674e-07
 82 4.5911e-06 20.0017 0.4545 0.00191874
 83 4.5911e-06 0.261783 0.4545 3.28674e-07
 84 4.5911e-06 20 0.4545 0.00191841
 85 4.5911e-06 0.261796 0.4545 3.28707e-07
 86 4.5911e-06 20.0017 0.4545 0.00191874
 87 4.5911e-06 0.261796 0.4545 3.28707e-07
 88 4.5911e-06 20 0.4545 0.00191841
 89 4.5911e-06 0.261793 0.4545 3.287e-07
 90 4.5911e-06 20.0017 0.4545 0.00191874
 91 4.5911e-06 0.261793 0.4545 3.287e-07
 92 4.5911e-06 20 0.4545 0.00191841
 93 4.5911e-06 0.26179 0.4545 3.28691e-07
 94 4.5911e-06 20.0017 0.4545 0.00191874
 95 4.5911e-06 0.26179 0.4545 3.28691e-07
 96 4.5911e-06 20 0.4545 0.00191841
 97 4.5911e-06 0.261796 0.4545 3.28708e-07
 98 4.5911e-06 20.0017 0.4545 0.00191874
 99 4.5911e-06 0.261796 0.4545 3.28708e-07
 100 4.5911e-06 20 0.4545 0.00191841
 101 4.5911e-06 0.261782 0.4545 3.28672e-07
 102 4.5911e-06 20.0017 0.4545 0.00191874
 103 4.5911e-06 0.261782 0.4545 3.28672e-07
 104 4.5911e-06 20 0.4545 0.00191841
 105 4.5911e-06 0.261796 0.4545 3.28707e-07
 106 4.5911e-06 20.0017 0.4545 0.00191874
 107 4.5911e-06 0.261796 0.4545 3.28707e-07
 108 4.5911e-06 20 0.4545 0.00191841
 109 4.5911e-06 0.261791 0.4545 3.28695e-07
 110 4.5911e-06 20.0017 0.4545 0.00191874
 111 4.5911e-06 0.261791 0.4545 3.28695e-07
 112 4.5911e-06 20 0.4545 0.00191841
 113 4.5911e-06 0.261798 0.4545 3.28711e-07
 114 4.5911e-06 20.0017 0.4545 0.00191874
 115 4.5911e-06 0.261798 0.4545 3.28711e-07
 116 4.5911e-06 20 0.4545 0.00191841
 117 4.5911e-06 0.261789 0.4545 3.28689e-07
 118 4.5911e-06 20.0017 0.4545 0.00191874
 119 4.5911e-06 0.261789 0.4545 3.28689e-07
 120 4.5911e-06 20 0.4545 0.00191841
 121 4.5911e-06 0.261795 0.4545 3.28703e-07
 122 4.5911e-06 20.0017 0.4545 0.00191874
 123 4.5911e-06 0.261795 0.4545 3.28703e-07
 124 4.5911e-06 20 0.4545 0.00191841
 125 4.5911e-06 0.261791 0.4545 3.28693e-07
 126 4.5911e-06 20.0017 0.4545 0.00191874
 127 4.5911e-06 0.261791 0.4545 3.28693e-07
 128 4.5911e-06 20 0.4545 0.00191841
 129 4.5911e-06 0.261792 0.4545 3.28696e-07
 130 4.5911e-06 20.0017 0.4545 0.00191874
 131 4.5911e-06 0.261792 0.4545 3.28696e-07
 132 4.5911e-06 20 0.4545 0.00191841
 133 4.5911e-06 0.261788 0.4545 3.28687e-07
 134 4.5911e-06 20.0017 0.4545 0.00191874
 135 4.5911e-06 0.261788 0.4545 3.28687e-07
 136 4.5911e-06 20 0.4545 0.00191841
 137 4.5911e-06 0.261795 0.4545 3.28703e-07
 138 4.5911e-06 20.0017 0.4545 0.00191874
 139 4.5911e-06 0.261795 0.4545 3.28703e-07
 140 4.5911e-06 20 0.4545 0.00191841
 141 4.5911e-06 0.261783 0.4545 3.28675e-07
 142 4.5911e-06 20.0017 0.4545 0.00191874
 143 4.5911e-06 0.261783 0.4545 3.28675e-07
 144 4.5911e-06 20 0.4545 0.00191841
 145 4.5911e-06 0.261791 0.4545 3.28695e-07
 146 4.5911e-06 20.0017 0.4545 0.00191874
 147 4.5911e-06 0.261791 0.4545 3.28695e-07
 148 4.5911e-06 20 0.4545 0.00191841
 149 4.5911e-06 0.2618 0.4545 3.28717e-07
 150 4.5911e-06 20.0017 0.4545 0.00191874
 151 4.5911e-06 0.2618 0.4545 3.28717e-07
 152 4.5911e-06 20 0.4545 0.00191841
 153 4.5911e-06 0.261782 0.4545 3.28672e-07
 154 4.5911e-06 20.0017 0.4545 0.00191874
 155 4.5911e-06 0.261782 0.4545 3.28672e-07
 156 4.5911e-06 20 0.4545 0.00191841
 157 4.5911e-06 0.261805 0.4545 3.28729e-07
 158 4.5911e-06 20.0017 0.4545 0.00191874
 159 4.5911e-06 0.261805 0.4545 3.28729e-07
 160 4.5911e-06 20 0.4545 0.00191841
 161 4.5911e-06 0.261787 0.4545 3.28684e-07
 162 4.5911e-06 20.0017 0.4545 0.00191874
 163 4.5911e-06 0.261787 0.4545 3.28684e-07
 164 4.5911e-06 20 0.4545 0.00191841
 165 4.5911e-06 0.261798 0.4545 3.28712e-07
 166 4.5911e-06 20.0017 0.4545 0.00191874
 167 4.5911e-06 0.261798 0.4545 3.28712e-07
 168 4.5911e-06 20 0.4545 0.00191841
 169 4.5911e-06 0.26179 0.4545 3.28693e-07
 170 4.5911e-06 20.0017 0.4545 0.00191874
 171 4.5911e-06 0.26179 0.4545 3.28693e-07
 172 4.5911e-06 20 0.4545 0.00191841
 173 4.5911e-06 0.26178 0.4545 3.28665e-07
 174 4.5911e-06 20.0017 0.4545 0.00191874
 175 4.5911e-06 0.26178 0.4545 3.28665e-07
 176 4.5911e-06 20 0.4545 0.00191841
 177 4.5911e-06 0.261805 0.4545 3.2873e-07
 178 4.5911e-06 20.0017 0.4545 0.00191874
 179 4.5911e-06 0.261805 0.4545 3.2873e-07
 180 4.5911e-06 20 0.4545 0.00191841
 181 4.5911e-06 0.261781 0.4545 3.2867e-07
 182 4.5911e-06 20.0017 0.4545 0.00191874
 183 4.5911e-06 0.261781 0.4545 3.2867e-07
 184 4.5911e-06 20 0.4545 0.00191841
 185 4.5911e-06 0.261796 0.4545 3.28707e-07
 186 4.5911e-06 20.0017 0.4545 0.00191874
 187 4.5911e-06 0.261796 0.4545 3.28707e-07
 188 4.5911e-06 20 0.4545 0.00191841
 189 4.5911e-06 0.2618 0.4545 3.28717e-07
 190 4.5911e-06 20.0017 0.4545 0.00191874
 191 4.5911e-06 0.2618 0.4545 3.28717e-07
 192 4.5911e-06 20 0.4545 0.00191841
 193 4.5911e-06 0.261793 0.4545 3.28699e-07
 194 4.5911e-06 20.0017 0.4545 0.00191874
 195 4.5911e-06 0.261793 0.4545 3.28699e-07
 196 4.5911e-06 20 0.4545 0.00191841
 197 4.5911e-06 0.261777 0.4545 3.28658e-07
 198 4.5911e-06 20.0017 0.4545 0.00191874
 199 4.5911e-06 0.261777 0.4545 3.28658e-07
 200 4.5911e-06 20 0.4545 0.00191841
 201 4.5911e-06 0.261789 0.4545 3.28688e-07
 202 4.5911e-06 20.0017 0.4545 0.00191874
 203 4.5911e-06 0.261789 0.4545 3.28688e-07
 204 4.5911e-06 20 0.4545 0.00191841
 205 4.5911e-06 0.261795 0.4545 3.28705e-07
 206 4.5911e-06 20.0017 0.4545 0.00191874
 207 4.5911e-06 0.261795 0.4545 3.28705e-07
 208 4.5911e-06 20 0.4545 0.00191841
 209 4.5911e-06 0.261795 0.4545 3.28704e-07
 210 4.5911e-06 20.0017 0.4545 0.00191874
 211 4.5911e-06 0.261795 0.4545 3.28704e-07
 212 4.5911e-06 20 0.4545 0.00191841
 213 4.5911e-06 0.26179 0.4545 3.28693e-07
 214 4.5911e-06 20.0017 0.4545 0.00191874
 215 4.5911e-06 0.26179 0.4545 3.28693e-07
 216 4.5911e-06 20 0.4545 0.00191841
 217 4.5911e-06 0.261801 0.4545 3.28719e-07
 218 4.5911e-06 20.0017 0.4545 0.00191874
 219 4.5911e-06 0.261801 0.4545 3.28719e-07
 220 4.5911e-06 20 0.4545 0.00191841
 221 4.5911e-06 0.261789 0.4545 3.28689e-07
 222 4.5911e-06 20.0017 0.4545 0.00191874
 223 4.5911e-06 0.261789 0.4545 3.28689e-07
 224 4.5911e-06 20 0.4545 0.00191841
 225 4.5911e-06 0.261795 0.4545 3.28704e-07
 226 4.5911e-06 20.0017 0.4545 0.00191874
 227 4.5911e-06 0.261795 0.4545 3.28704e-07
 228 4.5911e-06 20 0.4545 0.00191841
 229 4.5911e-06 0.261778 0.4545 3.28662e-07
 230 4.5911e-06 20.0017 0.4545 0.00191874
 231 4.5911e-06 0.261778 0.4545 3.28662e-07
 232 4.5911e-06 20 0.4545 0.00191841
 233 4.5911e-06 0.2618 0.4545 3.28718e-07
 234 4.5911e-06 20.0017 0.4545 0.00191874
 235 4.5911e-06 0.2618 0.4545 3.28718e-07
 236 4.5911e-06 20 0.4545 0.00191841
 237 4.5911e-06 0.261782 0.4545 3.28671e-07
 238 4.5911e-06 20.0017 0.4545 0.00191874
 239 4.5911e-06 0.261782 0.4545 3.28671e-07
 240 4.5911e-06 20 0.4545 0.00191841
 241 4.5911e-06 0.261802 0.4545 3.28723e-07
 242 4.5911e-06 20.0017 0.4545 0.00191874
 243 4.5911e-06 0.261802 0.4545 3.28723e-07
 244 4.5911e-06 20 0.4545 0.00191841
 245 4.5911e-06 0.261792 0.4545 3.28698e-07
 246 4.5911e-06 20.0017 0.4545 0.00191874
 247 4.5911e-06 0.261792 0.4545 3.28698e-07
 248 4.5911e-06 20 0.4545 0.00191841
 249 4.5911e-06 0.261792 0.4545 3.28696e-07
 250 4.5911e-06 20.0017 0.4545 0.00191874
 251 4.5911e-06 0.261792 0.4545 3.28696e-07
 252 4.5911e-06 20 0.4545 0.00191841
 253 4.5911e-06 0.261793 0.4545 3.28698e-07
 254 4.5911e-06 20.0017 0.4545 0.00191874
 255 4.5911e-06 0.261793 0.4545 3.28698e-07
 256 4.5911e-06 20 0.4545 0.00191841
 257 4.5911e-06 0.26179 0.4545 3.28692e-07
 258 4.5911e-06 20.0017 0.4545 0.00191874
 259 4.5911e-06 0.26179 0.4545 3.28692e-07
 260 4.5911e-06 20 0.4545 0.00191841
 261 4.5911e-06 0.261793 0.4545 3.28699e-07
 262 4.5911e-06 20.0017 0.4545 0.00191874
 263 4.5911e-06 0.261793 0.4545 3.28699e-07
 264 4.5911e-06 20 0.4545 0.00191841
 265 4.5911e-06 0.261791 0.4545 3.28694e-07
 266 4.5911e-06 20.0017 0.4545 0.00191874
 267 4.5911e-06 0.261791 0.4545 3.28694e-07
 268 4.5911e-06 20 0.4545 0.00191841
 269 4.5911e-06 0.261793 0.4545 3.287e-07
 270 4.5911e-06 20.0017 0.4545 0.00191874
 271 4.5911e-06 0.261793 0.4545 3.287e-07
 272 4.5911e-06 20 0.4545 0.00191841
 273 4.5911e-06 0.26179 0.4545 3.28693e-07
 274 4.5911e-06 20.0017 0.4545 0.00191874
 275 4.5911e-06 0.26179 0.4545 3.28693e-07
 276 4.5911e-06 20 0.4545 0.00191841
 277 4.5911e-06 0.261793 0.4545 3.28699e-07
 278 4.5911e-06 20.0017 0.4545 0.00191874
 279 4.5911e-06 0.261793 0.4545 3.28699e-07
 280 4.5911e-06 20 0.4545 0.00191841
 281 4.5911e-06 0.261791 0.4545 3.28695e-07
 282 4.5911e-06 20.0017 0.4545 0.00191874
 283 4.5911e-06 0.261791 0.4545 3.28695e-07
 284 4.5911e-06 20 0.4545 0.00191841
 285 4.5911e-06 0.261791 0.4545 3.28693e-07
 286 4.5911e-06 20.0017 0.4545 0.00191874
 287 4.5911e-06 0.261791 0.4545 3.28693e-07
 288 4.5911e-06 20 0.4545 0.00191841
 289 4.5911e-06 0.261794 0.4545 3.28701e-07
 290 4.5911e-06 20.0017 0.4545 0.00191874
 291 4.5911e-06 0.261794 0.4545 3.28701e-07
 292 4.5911e-06 20 0.4545 0.00191841
 293 4.5911e-06 0.261791 0.4545 3.28695e-07
 294 4.5911e-06 20.0017 0.4545 0.00191874
 295 4.5911e-06 0.261791 0.4545 3.28695e-07
 296 4.5911e-06 20 0.4545 0.00191841
 297 4.5911e-06 0.261793 0.4545 3.28698e-07
 298 4.5911e-06 20.0017 0.4545 0.00191874
 299 4.5911e-06 0.261793 0.4545 3.28698e-07
 300 4.5911e-06 20 0.4545 0.00191841
 301 4.5911e-06 0.261791 0.4545 3.28694e-07
 302 4.5911e-06 20.0017 0.4545 0.00191874
 303 4.5911e-06 0.261791 0.4545 3.28694e-07
 304 4.5911e-06 20 0.4545 0.00191841
 305 4.5911e-06 0.261792 0.4545 3.28697e-07
 306 4.5911e-06 20.0017 0.4545 0.00191874
 307 4.5911e-06 0.261792 0.4545 3.28697e-07
 308 4.5911e-06 20 0.4545 0.00191841
 309 4.5911e-06 0.261791 0.4545 3.28693e-07
 310 4.5911e-06 20.0017 0.4545 0.00191874
 311 4.5911e-06 0.261791 0.4545 3.28693e-07
 312 4.5911e-06 20 0.4545 0.00191841
 313 4.5911e-06 0.261794 0.4545 3.28701e-07
 314 4.5911e-06 20.0017 0.4545 0.00191874
 315 4.5911e-06 0.261794 0.4545 3.28701e-07
 316 4.5911e-06 20 0.4545 0.00191841
 317 4.5911e-06 0.261792 0.4545 3.28697e-07
 318 4.5911e-06 20.0017 0.4545 0.00191874
 319 4.5911e-06 0.261792 0.4545 3.28697e-07
 320 4.5911e-06 20 0.4545 0.00191841
 321 4.5911e-06 0.261791 0.4545 3.28694e-07
 322 4.5911e-06 20.0017 0.4545 0.00191874
 323 4.5911e-06 0.261791 0.4545 3.28694e-07
 324 4.5911e-06 20 0.4545 0.00191841
 325 4.5911e-06 0.261792 0.4545 3.28697e-07
 326 4.5911e-06 20.0017 0.4545 0.00191874
 327 4.5911e-06 0.261792 0.4545 3.28697e-07
 328 4.5911e-06 20 0.4545 0.00191841
 329 4.5911e-06 0.261791 0.4545 3.28695e-07
 330 4.5911e-06 20.0017 0.4545 0.00191874
 331 4.5911e-06 0.261791 0.4545 3.28695e-07
 332 4.5911e-06 20 0.4545 0.00191841
 333 4.5911e-06 0.261792 0.4545 3.28697e-07
 334 4.5911e-06 20.0017 0.4545 0.00191874
 335 4.5911e-06 0.261792 0.4545 3.28697e-07
 336 4.5911e-06 20 0.4545 0.00191841
 337 4.5911e-06 0.261792 0.4545 3.28696e-07
 338 4.5911e-06 20.0017 0.4545 0.00191874
 339 4.5911e-06 0.261792 0.4545 3.28696e-07
 340 4.5911e-06 20 0.4545 0.00191841
 341 4.5911e-06 0.261793 0.4545 3.28699e-07
 342 4.5911e-06 20.0017 0.4545 0.00191874
 343 4.5911e-06 0.261793 0.4545 3.28699e-07
 344 4.5911e-06 20 0.4545 0.00191841
 345 4.5911e-06 0.261791 0.4545 3.28694e-07
 346 4.5911e-06 20.0017 0.4545 0.00191874
 347 4.5911e-06 0.261791 0.4545 3.28694e-07
 348 4.5911e-06 20 0.4545 0.00191841
 349 4.5911e-06 0.261791 0.4545 3.28695e-07
 350 4.5911e-06 20.0017 0.4545 0.00191874
 351 4.5911e-06 0.261791 0.4545 3.28695e-07
 352 4.5911e-06 20 0.4545 0.00191841
 353 4.5911e-06 0.261793 0.4545 3.28698e-07
 354 4.5911e-06 20.0017 0.4545 0.00191874
 355 4.5911e-06 0.261793 0.4545 3.28698e-07
 356 4.5911e-06 20 0.4545 0.00191841
 357 4.5911e-06 0.261792 0.4545 3.28696e-07
 358 4.5911e-06 20.0017 0.4545 0.00191874
 359 4.5911e-06 0.261792 0.4545 3.28696e-07
 360 4.5911e-06 20 0.4545 0.00191841
 361 4.5911e-06 0.261792 0.4545 3.28696e-07
 362 4.5911e-06 20.0017 0.4545 0.00191874
 363 4.5911e-06 0.261792 0.4545 3.28696e-07
 364 4.5911e-06 20 0.4545 0.00191841
 365 4.5911e-06 0.261792 0.4545 3.28696e-07
 366 4.5911e-06 20.0017 0.4545 0.00191874
 367 4.5911e-06 0.261792 0.4545 3.28696e-07
 368 4.5911e-06 20 0.4545 0.00191841
 369 4.5911e-06 0.261792 0.4545 3.28696e-07
 370 4.5911e-06 20.0017 0.4545 0.00191874
 371 4.5911e-06 0.261792 0.4545 3.28696e-07
 372 4.5911e-06 20 0.4545 0.00191841
 373 4.5911e-06 0.261793 0.4545 3.28698e-07
 374 4.5911e-06 20.0017 0.4545 0.00191874
 375 4.5911e-06 0.261793 0.4545 3.28698e-07
 376 4.5911e-06 20 0.4545 0.00191841
 377 4.5911e-06 0.261791 0.4545 3.28695e-07
 378 4.5911e-06 20.0017 0.4545 0.00191874
 379 4.5911e-06 0.261791 0.4545 3.28695e-07
 380 4.5911e-06 20 0.4545 0.00191841
 381 4.5911e-06 0.261791 0.4545 3.28694e-07
 382 4.5911e-06 20.0017 0.4545 0.00191874
 383 4.5911e-06 0.261791 0.4545 3.28694e-07
 384 4.5911e-06 20 0.4545 0.00191841
 385 4.5911e-06 0.261793 0.4545 3.28699e-07
 386 4.5911e-06 20.0017 0.4545 0.00191874
 387 4.5911e-06 0.261793 0.4545 3.28699e-07
 388 4.5911e-06 20 0.4545 0.00191841
 389 4.5911e-06 0.261792 0.4545 3.28696e-07
 390 4.5911e-06 20.0017 0.4545 0.00191874
 391 4.5911e-06 0.261792 0.4545 3.28696e-07
 392 4.5911e-06 20 0.4545 0.00191841
 393 4.5911e-06 0.261792 0.4545 3.28697e-07
 394 4.5911e-06 20.0017 0.4545 0.00191874
 395 4.5911e-06 0.261792 0.4545 3.28697e-07
 396 4.5911e-06 20 0.4545 0.00191841
 397 4.5911e-06 0.261791 0.4545 3.28695e-07
 398 4.5911e-06 20.0017 0.4545 0.00191874
 399 4.5911e-06 0.261791 0.4545 3.28695e-07
 400 4.5911e-06 20 0.4545 0.00191841
 401 4.5911e-06 0.261792 0.4545 3.28697e-07
 402 4.5911e-06 20.0017 0.4545 0.00191874
 403 4.5911e-06 0.261792 0.4545 3.28697e-07
 404 4.5911e-06 20 0.4545 0.00191841
 405 4.5911e-06 0.261791 0.4545 3.28694e-07
 406 4.5911e-06 20.0017 0.4545 0.00191874
 407 4.5911e-06 0.261791 0.4545 3.28694e-07
 408 4.5911e-06 20 0.4545 0.00191841
 409 4.5911e-06 0.261792 0.4545 3.28697e-07
 410 4.5911e-06 20.0017 0.4545 0.00191874
 411 4.5911e-06 0.261792 0.4545 3.28697e-07
 412 4.5911e-06 20 0.4545 0.00191841
 413 4.5911e-06 0.261794 0.4545 3.28701e-07
 414 4.5911e-06 20.0017 0.4545 0.00191874
 415 4.5911e-06 0.261794 0.4545 3.28701e-07
 416 4.5911e-06 20 0.4545 0.00191841
 417 4.5911e-06 0.261791 0.4545 3.28693e-07
 418 4.5911e-06 20.0017 0.4545 0.00191874
 419 4.5911e-06 0.261791 0.4545 3.28693e-07
 420 4.5911e-06 20 0.4545 0.00191841
 421 4.5911e-06 0.261792 0.4545 3.28697e-07
 422 4.5911e-06 20.0017 0.4545 0.00191874
 423 4.5911e-06 0.261792 0.4545 3.28697e-07
 424 4.5911e-06 20 0.4545 0.00191841
 425 4.5911e-06 0.261791 0.4545 3.28694e-07
 426 4.5911e-06 20.0017 0.4545 0.00191874
 427 4.5911e-06 0.261791 0.4545 3.28694e-07
 428 4.5911e-06 20 0.4545 0.00191841
 429 4.5911e-06 0.261793 0.4545 3.28698e-07
 430 4.5911e-06 20.0017 0.4545 0.00191874
 431 4.5911e-06 0.261793 0.4545 3.28698e-07
 432 4.5911e-06 20 0.4545 0.00191841
 433 4.5911e-06 0.261791 0.4545 3.28695e-07
 434 4.5911e-06 20.0017 0.4545 0.00191874
 435 4.5911e-06 0.261791 0.4545 3.28695e-07
 436 4.5911e-06 20 0.4545 0.00191841
 437 4.5911e-06 0.261794 0.4545 3.28701e-07
 438 4.5911e-06 20.0017 0.4545 0.00191874
 439 4.5911e-06 0.261794 0.4545 3.28701e-07
 440 4.5911e-06 20 0.4545 0.00191841
 441 4.5911e-06 0.261791 0.4545 3.28693e-07
 442 4.5911e-06 20.0017 0.4545 0.00191874
 443 4.5911e-06 0.261791 0.4545 3.28693e-07
 444 4.5911e-06 20 0.4545 0.00191841
 445 4.5911e-06 0.261791 0.4545 3.28695e-07
 446 4.5911e-06 20.0017 0.4545 0.00191874
 447 4.5911e-06 0.261791 0.4545 3.28695e-07
 448 4.5911e-06 20 0.4545 0.00191841
 449 4.5911e-06 0.261793 0.4545 3.28699e-07
 450 4.5911e-06 20.0017 0.4545 0.00191874
 451 4.5911e-06 0.261793 0.4545 3.28699e-07
 452 4.5911e-06 20 0.4545 0.00191841
 453 4.5911e-06 0.26179 0.4545 3.28693e-07
 454 4.5911e-06 20.0017 0.4545 0.00191874
 455 4.5911e-06 0.26179 0.4545 3.28693e-07
 456 4.5911e-06 20 0.4545 0.00191841
 457 4.5911e-06 0.261793 0.4545 3.287e-07
 458 4.5911e-06 20.0017 0.4545 0.00191874
 459 4.5911e-06 0.261793 0.4545 3.287e-07
 460 4.5911e-06 20 0.4545 0.00191841
 461 4.5911e-06 0.261791 0.4545 3.28694e-07
 462 4.5911e-06 20.0017 0.4545 0.00191874
 463 4.5911e-06 0.261791 0.4545 3.28694e-07
 464 4.5911e-06 20 0.4545 0.00191841
 465 4.5911e-06 0.261793 0.4545 3.28699e-07
 466 4.5911e-06 20.0017 0.4545 0.00191874
 467 4.5911e-06 0.261793 0.4545 3.28699e-07
 468 4.5911e-06 20 0.4545 0.00191841
 469 4.5911e-06 0.26179 0.4545 3.28692e-07
 470 4.5911e-06 20.0017 0.4545 0.00191874
 471 4.5911e-06 0.26179 0.4545 3.28692e-07
 472 4.5911e-06 20 0.4545 0.00191841
 473 4.5911e-06 0.261793 0.4545 3.28698e-07
 474 4.5911e-06 20.0017 0.4545 0.00191874
 475 4.5911e-06 0.261793 0.4545 3.28698e-07
 476 4.5911e-06 20 0.4545 0.00191841
 477 4.5911e-06 0.261792 0.4545 3.28696e-07
 478 4.5911e-06 20.0017 0.4545 0.00191874
 479 4.5911e-06 0.261792 0.4545 3.28696e-07
 480 4.5911e-06 20 0.4545 0.00191841
 481 4.5911e-06 0.261792 0.4545 3.28698e-07
 482 4.5911e-06 20.0017 0.4545 0.00191874
 483 4.5911e-06 0.261792 0.4545 3.28698e-07
 484 4.5911e-06 20 0.4545 0.00191841
 485 4.5911e-06 0.261802 0.4545 3.28723e-07
 486 4.5911e-06 20.0017 0.4545 0.00191874
 487 4.5911e-06 0.261802 0.4545 3.28723e-07
 488 4.5911e-06 20 0.4545 0.00191841
 489 4.5911e-06 0.261782 0.4545 3.28671e-07
 490 4.5911e-06 20.0017 0.4545 0.00191874
 491 4.5911e-06 0.261782 0.4545 3.28671e-07
 492 4.5911e-06 20 0.4545 0.00191841
 493 4.5911e-06 0.2618 0.4545 3.28718e-07
 494 4.5911e-06 20.0017 0.4545 0.00191874
 495 4.5911e-06 0.2618 0.4545 3.28718e-07
 496 4.5911e-06 20 0.4545 0.00191841
 497 4.5911e-06 0.261778 0.4545 3.28662e-07
 498 4.5911e-06 20.0017 0.4545 0.00191874
 499 4.5911e-06 0.261778 0.4545 3.28662e-07
 500 4.5911e-06 20 0.4545 0.00191841
 501 4.5911e-06 0.261795 0.4545 3.28704e-07
 502 4.5911e-06 20.0017 0.4545 0.00191874
 503 4.5911e-06 0.261795 0.4545 3.28704e-07
 504 4.5911e-06 20 0.4545 0.00191841
 505 4.5911e-06 0.261789 0.4545 3.28689e-07
 506 4.5911e-06 20.0017 0.4545 0.00191874
 507 4.5911e-06 0.261789 0.4545 3.28689e-07
 508 4.5911e-06 20 0.4545 0.00191841
 509 4.5911e-06 0.261801 0.4545 3.28719e-07
 510 4.5911e-06 20.0017 0.4545 0.00191874
 511 4.5911e-06 0.261801 0.4545 3.28719e-07
 512 4.5911e-06 20 0.4545 0.00191841
 513 4.5911e-06 0.26179 0.4545 3.28693e-07
 514 4.5911e-06 20.0017 0.4545 0.00191874
 515 4.5911e-06 0.26179 0.4545 3.28693e-07
 516 4.5911e-06 20 0.4545 0.00191841
 517 4.5911e-06 0.261795 0.4545 3.28704e-07
 518 4.5911e-06 20.0017 0.4545 0.00191874
 519 4.5911e-06 0.261795 0.4545 3.28704e-07
 520 4.5911e-06 20 0.4545 0.00191841
 521 4.5911e-06 0.261795 0.4545 3.28705e-07
 522 4.5911e-06 20.0017 0.4545 0.00191874
 523 4.5911e-06 0.261795 0.4545 3.28705e-07
 524 4.5911e-06 20 0.4545 0.00191841
 525 4.5911e-06 0.261789 0.4545 3.28688e-07
 526 4.5911e-06 20.0017 0.4545 0.00191874
 527 4.5911e-06 0.261789 0.4545 3.28688e-07
 528 4.5911e-06 20 0.4545 0.00191841
 529 4.5911e-06 0.261777 0.4545 3.28658e-07
 530 4.5911e-06 20.0017 0.4545 0.00191874
 531 4.5911e-06 0.261777 0.4545 3.28658e-07
 532 4.5911e-06 20 0.4545 0.00191841
 533 4.5911e-06 0.261793 0.4545 3.28699e-07
 534 4.5911e-06 20.0017 0.4545 0.00191874
 535 4.5911e-06 0.261793 0.4545 3.28699e-07
 536 4.5911e-06 20 0.4545 0.00191841
 537 4.5911e-06 0.2618 0.4545 3.28717e-07
 538 4.5911e-06 20.0017 0.4545 0.00191874
 539 4.5911e-06 0.2618 0.4545 3.28717e-07
 540 4.5911e-06 20 0.4545 0.00191841
 541 4.5911e-06 0.261796 0.4545 3.28707e-07
 542 4.5911e-06 20.0017 0.4545 0.00191874
 543 4.5911e-06 0.261796 0.4545 3.28707e-07
 544 4.5911e-06 20 0.4545 0.00191841
 545 4.5911e-06 0.261781 0.4545 3.2867e-07
 546 4.5911e-06 20.0017 0.4545 0.00191874
 547 4.5911e-06 0.261781 0.4545 3.2867e-07
 548 4.5911e-06 20 0.4545 0.00191841
 549 4.5911e-06 0.261805 0.4545 3.2873e-07
 550 4.5911e-06 20.0017 0.4545 0.00191874
 551 4.5911e-06 0.261805 0.4545 3.2873e-07
 552 4.5911e-06 20 0.4545 0.00191841
 553 4.5911e-06 0.26178 0.4545 3.28665e-07
 554 4.5911e-06 20.0017 0.4545 0.00191874
 555 4.5911e-06 0.26178 0.4545 3.28665e-07
 556 4.5911e-06 20 0.4545 0.00191841
 557 4.5911e-06 0.26179 0.4545 3.28693e-07
 558 4.5911e-06 20.0017 0.4545 0.00191874
 559 4.5911e-06 0.26179 0.4545 3.28693e-07
 560 4.5911e-06 20 0.4545 0.00191841
 561 4.5911e-06 0.261798 0.4545 3.28712e-07
 562 4.5911e-06 20.0017 0.4545 0.00191874
 563 4.5911e-06 0.261798 0.4545 3.28712e-07
 564 4.5911e-06 20 0.4545 0.00191841
 565 4.5911e-06 0.261787 0.4545 3.28684e-07
 566 4.5911e-06 20.0017 0.4545 0.00191874
 567 4.5911e-06 0.261787 0.4545 3.28684e-07
 568 4.5911e-06 20 0.4545 0.00191841
 569 4.5911e-06 0.261805 0.4545 3.28729e-07
 570 4.5911e-06 20.0017 0.4545 0.00191874
 571 4.5911e-06 0.261805 0.4545 3.28729e-07
 572 4.5911e-06 20 0.4545 0.00191841
 573 4.5911e-06 0.261782 0.4545 3.28672e-07
 574 4.5911e-06 20.0017 0.4545 0.00191874
 575 4.5911e-06 0.261782 0.4545 3.28672e-07
 576 4.5911e-06 20 0.4545 0.00191841
 577 4.5911e-06 0.2618 0.4545 3.28717e-07
 578 4.5911e-06 20.0017 0.4545 0.00191874
 579 4.5911e-06 0.2618 0.4545 3.28717e-07
 580 4.5911e-06 20 0.4545 0.00191841
 581 4.5911e-06 0.261791 0.4545 3.28695e-07
 582 4.5911e-06 20.0017 0.4545 0.00191874
 583 4.5911e-06 0.261791 0.4545 3.28695e-07
 584 4.5911e-06 20 0.4545 0.00191841
 585 4.5911e-06 0.261783 0.4545 3.28675e-07
 586 4.5911e-06 20.0017 0.4545 0.00191874
 587 4.5911e-06 0.261783 0.4545 3.28675e-07
 588 4.5911e-06 20 0.4545 0.00191841
 589 4.5911e-06 0.261795 0.4545 3.28703e-07
 590 4.5911e-06 20.0017 0.4545 0.00191874
 591 4.5911e-06 0.261795 0.4545 3.28703e-07
 592 4.5911e-06 20 0.4545 0.00191841
 593 4.5911e-06 0.261788 0.4545 3.28687e-07
 594 4.5911e-06 20.0017 0.4545 0.00191874
 595 4.5911e-06 0.261788 0.4545 3.28687e-07
 596 4.5911e-06 20 0.4545 0.00191841
 597 4.5911e-06 0.261792 0.4545 3.28696e-07
 598 4.5911e-06 20.0017 0.4545 0.00191874
 599 4.5911e-06 0.261792 0.4545 3.28696e-07
 600 4.5911e-06 20 0.4545 0.00191841
 601 4.5911e-06 0.261791 0.4545 3.28693e-07
 602 4.5911e-06 20.0017 0.4545 0.00191874
 603 4.5911e-06 0.261791 0.4545 3.28693e-07
 604 4.5911e-06 20 0.4545 0.00191841
 605 4.5911e-06 0.261795 0.4545 3.28703e-07
 606 4.5911e-06 20.0017 0.4545 0.00191874
 607 4.5911e-06 0.261795 0.4545 3.28703e-07
 608 4.5911e-06 20 0.4545 0.00191841
 609 4.5911e-06 0.261789 0.4545 3.28689e-07
 610 4.5911e-06 20.0017 0.4545 0.00191874
 611 4.5911e-06 0.261789 0.4545 3.28689e-07
 612 4.5911e-06 20 0.4545 0.00191841
 613 4.5911e-06 0.261798 0.4545 3.28711e-07
 614 4.5911e-06 20.0017 0.4545 0.00191874
 615 4.5911e-06 0.261798 0.4545 3.28711e-07
 616 4.5911e-06 20 0.4545 0.00191841
 617 4.5911e-06 0.261791 0.4545 3.28695e-07
 618 4.5911e-06 20.0017 0.4545 0.00191874
 619 4.5911e-06 0.261791 0.4545 3.28695e-07
 620 4.5911e-06 20 0.4545 0.00191841
 621 4.5911e-06 0.261796 0.4545 3.28707e-07
 622 4.5911e-06 20.0017 0.4545 0.00191874
 623 4.5911e-06 0.261796 0.4545 3.28707e-07
 624 4.5911e-06 20 0.4545 0.00191841
 625 4.5911e-06 0.261782 0.4545 3.28672e-07
 626 4.5911e-06 20.0017 0.4545 0.00191874
 627 4.5911e-06 0.261782 0.4545 3.28672e-07
 628 4.5911e-06 20 0.4545 0.00191841
 629 4.5911e-06 0.261796 0.4545 3.28708e-07
 630 4.5911e-06 20.0017 0.4545 0.00191874
 631 4.5911e-06 0.261796 0.4545 3.28708e-07
 632 4.5911e-06 20 0.4545 0.00191841
 633 4.5911e-06 0.26179 0.4545 3.28691e-07
 634 4.5911e-06 20.0017 0.4545 0.00191874
 635 4.5911e-06 0.26179 0.4545 3.28691e-07
 636 4.5911e-06 20 0.4545 0.00191841
 637 4.5911e-06 0.261793 0.4545 3.287e-07
 638 4.5911e-06 20.0017 0.4545 0.00191874
 639 4.5911e-06 0.261793 0.4545 3.287e-07
 640 4.5911e-06 20 0.4545 0.00191841
 641 4.5911e-06 0.261796 0.4545 3.28707e-07
 642 4.5911e-06 20.0017 0.4545 0.00191874
 643 4.5911e-06 0.261796 0.4545 3.28707e-07
 644 4.5911e-06 20 0.4545 0.00191841
 645 4.5911e-06 0.261783 0.4545 3.28674e-07
 646 4.5911e-06 20.0017 0.4545 0.00191874
 647 4.5911e-06 0.261783 0.4545 3.28674e-07
 648 4.5911e-06 20 0.4545 0.00191841
 649 4.5911e-06 0.261794 0.4545 3.28702e-07
 650 4.5911e-06 20.0017 0.4545 0.00191874
 651 4.5911e-06 0.261794 0.4545 3.28702e-07
 652 4.5911e-06 20 0.4545 0.00191841
 653 4.5911e-06 0.261799 0.4545 3.28715e-07
 654 4.5911e-06 20.0017 0.4545 0.00191874
 655 4.5911e-06 0.261799 0.4545 3.28715e-07
 656 4.5911e-06 20 0.4545 0.00191841
 657 4.5911e-06 0.261791 0.4545 3.28693e-07
 658 4.5911e-06 20.0017 0.4545 0.00191874
 659 4.5911e-06 0.261791 0.4545 3.28693e-07
 660 4.5911e-06 20 0.4545 0.00191841
 661 4.5911e-06 0.261792 0.4545 3.28695e-07
 662 4.5911e-06 20.0017 0.4545 0.00191874
 663 4.5911e-06 0.261792 0.4545 3.28695e-07
 664 4.5911e-06 20 0.4545 0.00191841
 665 4.5911e-06 0.261788 0.4545 3.28686e-07
 666 4.5911e-06 20.0017 0.4545 0.00191874
 667 4.5911e-06 0.261788 0.4545 3.28686e-07
 668 4.5911e-06 20 0.4545 0.00191841
 669 4.5911e-06 0.261796 0.4545 3.28707e-07
 670 4.5911e-06 20.0017 0.4545 0.00191874
 671 4.5911e-06 0.261796 0.4545 3.28707e-07
 672 4.5911e-06 20 0.4545 0.00191841
 673 4.5911e-06 0.261788 0.4545 3.28686e-07
 674 4.5911e-06 20.0017 0.4545 0.00191874
 675 4.5911e-06 0.261788 0.4545 3.28686e-07
 676 4.5911e-06 20 0.4545 0.00191841
 677 4.5911e-06 0.261796 0.4545 3.28706e-07
 678 4.5911e-06 20.0017 0.4545 0.00191874
 679 4.5911e-06 0.261796 0.4545 3.28706e-07
 680 4.5911e-06 20 0.4545 0.00191841
 681 4.5911e-06 0.261791 0.4545 3.28693e-07
 682 4.5911e-06 20.0017 0.4545 0.00191874
 683 4.5911e-06 0.261791 0.4545 3.28693e-07
 684 4.5911e-06 20 0.4545 0.00191841
 685 4.5911e-06 0.261791 0.4545 3.28694e-07
 686 4.5911e-06 20.0017 0.4545 0.00191874
 687 4.5911e-06 0.261791 0.4545 3.28694e-07
 688 4.5911e-06 20 0.4545 0.00191841
 689 4.5911e-06 0.261794 0.4545 3.28701e-07
 690 4.5911e-06 20.0017 0.4545 0.00191874
 691 4.5911e-06 0.261794 0.4545 3.28701e-07
 692 4.5911e-06 20 0.4545 0.00191841
 693 4.5911e-06 0.261792 0.4545 3.28696e-07
 694 4.5911e-06 20.0017 0.4545 0.00191874
 695 4.5911e-06 0.261792 0.4545 3.28696e-07
 696 4.5911e-06 20 0.4545 0.00191841
 697 4.5911e-06 0.261791 0.4545 3.28694e-07
 698 4.5911e-06 20.0017 0.4545 0.00191874
 699 4.5911e-06 0.261791 0.4545 3.28694e-07
 700 4.5911e-06 20 0.4545 0.00191841
 701 4.5911e-06 0.26179 0.4545 3.28693e-07
 702 4.5911e-06 20.0017 0.4545 0.00191874
 703 4.5911e-06 0.26179 0.4545 3.28693e-07
 704 4.5911e-06 20 0.4545 0.00191841
 705 4.5911e-06 0.261794 0.4545 3.28701e-07
 706 4.5911e-06 20.0017 0.4545 0.00191874
 707 4.5911e-06 0.261794 0.4545 3.28701e-07
 708 4.5911e-06 20 0.4545 0.00191841
 709 4.5911e-06 0.261791 0.4545 3.28693e-07
 710 4.5911e-06 20.0017 0.4545 0.00191874
 711 4.5911e-06 0.261791 0.4545 3.28693e-07
 712 4.5911e-06 20 0.4545 0.00191841
 713 4.5911e-06 0.261792 0.4545 3.28697e-07
 714 4.5911e-06 20.0017 0.4545 0.00191874
 715 4.5911e-06 0.261792 0.4545 3.28697e-07
 716 4.5911e-06 20 0.4545 0.00191841
 717 4.5911e-06 0.261792 0.4545 3.28696e-07
 718 4.5911e-06 20.0017 0.4545 0.00191874