lammps cell input
5 atoms
3 atom types
2 bond types
10 extra bond per atom
200 extra special per atom
0 20 xlo xhi
0 40 ylo yhi
0 40 zlo zhi

Masses

1 4.18879
2 4.18879
3 4.18879

Bond Coeffs

1 0.0028125 2
2 0.028125 1.5
 
Atoms

1 1 3 7 1 20
2 2 3 9 1 20
3 3 3 11 1 20
4 4 3 13 1 20
5 5 3 7 1 22

